+ 0.1 0 1 tcp 40 ------- 0 0.0 2.0 0 0
- 0.1 0 1 tcp 40 ------- 0 0.0 2.0 0 0
r 0.11032 0 1 tcp 40 ------- 0 0.0 2.0 0 0
+ 0.11032 1 2 tcp 40 ------- 0 0.0 2.0 0 0
- 0.11032 1 2 tcp 40 ------- 0 0.0 2.0 0 0
r 0.12672 1 2 tcp 40 ------- 0 0.0 2.0 0 0
+ 0.12672 2 1 ack 40 ------- 0 2.0 0.0 0 1
- 0.12672 2 1 ack 40 ------- 0 2.0 0.0 0 1
r 0.14312 2 1 ack 40 ------- 0 2.0 0.0 0 1
+ 0.14312 1 0 ack 40 ------- 0 2.0 0.0 0 1
- 0.14312 1 0 ack 40 ------- 0 2.0 0.0 0 1
r 0.15344 1 0 ack 40 ------- 0 2.0 0.0 0 1
+ 0.15344 0 1 tcp 40 ------- 0 0.0 2.0 1 2
- 0.15344 0 1 tcp 40 ------- 0 0.0 2.0 1 2
+ 0.15344 0 1 tcp 576 ------- 0 0.0 2.0 1 3
+ 0.15344 0 1 tcp 576 ------- 0 0.0 2.0 537 4
- 0.15376 0 1 tcp 576 ------- 0 0.0 2.0 1 3
- 0.158368 0 1 tcp 576 ------- 0 0.0 2.0 537 4
r 0.16376 0 1 tcp 40 ------- 0 0.0 2.0 1 2
+ 0.16376 1 2 tcp 40 ------- 0 0.0 2.0 1 2
- 0.16376 1 2 tcp 40 ------- 0 0.0 2.0 1 2
r 0.168368 0 1 tcp 576 ------- 0 0.0 2.0 1 3
+ 0.168368 1 2 tcp 576 ------- 0 0.0 2.0 1 3
- 0.17016 1 2 tcp 576 ------- 0 0.0 2.0 1 3
r 0.172976 0 1 tcp 576 ------- 0 0.0 2.0 537 4
+ 0.172976 1 2 tcp 576 ------- 0 0.0 2.0 537 4
r 0.18016 1 2 tcp 40 ------- 0 0.0 2.0 1 2
- 0.26232 1 2 tcp 576 ------- 0 0.0 2.0 537 4
r 0.27232 1 2 tcp 576 ------- 0 0.0 2.0 1 3
+ 0.27232 2 1 ack 40 ------- 0 2.0 0.0 1 5
- 0.27232 2 1 ack 40 ------- 0 2.0 0.0 1 5
r 0.28872 2 1 ack 40 ------- 0 2.0 0.0 1 5
+ 0.28872 1 0 ack 40 ------- 0 2.0 0.0 1 5
- 0.28872 1 0 ack 40 ------- 0 2.0 0.0 1 5
r 0.29904 1 0 ack 40 ------- 0 2.0 0.0 1 5
+ 0.29904 0 1 tcp 576 ------- 0 0.0 2.0 1073 6
- 0.29904 0 1 tcp 576 ------- 0 0.0 2.0 1073 6
+ 0.29904 0 1 tcp 576 ------- 0 0.0 2.0 1609 7
- 0.303648 0 1 tcp 576 ------- 0 0.0 2.0 1609 7
r 0.313648 0 1 tcp 576 ------- 0 0.0 2.0 1073 6
+ 0.313648 1 2 tcp 576 ------- 0 0.0 2.0 1073 6
r 0.318256 0 1 tcp 576 ------- 0 0.0 2.0 1609 7
+ 0.318256 1 2 tcp 576 ------- 0 0.0 2.0 1609 7
- 0.35448 1 2 tcp 576 ------- 0 0.0 2.0 1073 6
r 0.36448 1 2 tcp 576 ------- 0 0.0 2.0 537 4
+ 0.36448 2 1 ack 40 ------- 0 2.0 0.0 1 8
- 0.36448 2 1 ack 40 ------- 0 2.0 0.0 1 8
r 0.38088 2 1 ack 40 ------- 0 2.0 0.0 1 8
+ 0.38088 1 0 ack 40 ------- 0 2.0 0.0 1 8
- 0.38088 1 0 ack 40 ------- 0 2.0 0.0 1 8
r 0.3912 1 0 ack 40 ------- 0 2.0 0.0 1 8
+ 0.3912 0 1 tcp 576 ------- 0 0.0 2.0 2145 9
- 0.3912 0 1 tcp 576 ------- 0 0.0 2.0 2145 9
+ 0.3912 0 1 tcp 576 ------- 0 0.0 2.0 2681 10
- 0.395808 0 1 tcp 576 ------- 0 0.0 2.0 2681 10
r 0.405808 0 1 tcp 576 ------- 0 0.0 2.0 2145 9
+ 0.405808 1 2 tcp 576 ------- 0 0.0 2.0 2145 9
r 0.410416 0 1 tcp 576 ------- 0 0.0 2.0 2681 10
+ 0.410416 1 2 tcp 576 ------- 0 0.0 2.0 2681 10
- 0.44664 1 2 tcp 576 ------- 0 0.0 2.0 1609 7
r 0.45664 1 2 tcp 576 ------- 0 0.0 2.0 1073 6
+ 0.45664 2 1 ack 40 ------- 0 2.0 0.0 1 11
- 0.45664 2 1 ack 40 ------- 0 2.0 0.0 1 11
r 0.47304 2 1 ack 40 ------- 0 2.0 0.0 1 11
+ 0.47304 1 0 ack 40 ------- 0 2.0 0.0 1 11
- 0.47304 1 0 ack 40 ------- 0 2.0 0.0 1 11
r 0.48336 1 0 ack 40 ------- 0 2.0 0.0 1 11
+ 0.48336 0 1 tcp 576 ------- 0 0.0 2.0 3217 12
- 0.48336 0 1 tcp 576 ------- 0 0.0 2.0 3217 12
+ 0.48336 0 1 tcp 576 ------- 0 0.0 2.0 3753 13
- 0.487968 0 1 tcp 576 ------- 0 0.0 2.0 3753 13
r 0.497968 0 1 tcp 576 ------- 0 0.0 2.0 3217 12
+ 0.497968 1 2 tcp 576 ------- 0 0.0 2.0 3217 12
r 0.502576 0 1 tcp 576 ------- 0 0.0 2.0 3753 13
+ 0.502576 1 2 tcp 576 ------- 0 0.0 2.0 3753 13
- 0.5388 1 2 tcp 576 ------- 0 0.0 2.0 2145 9
r 0.5488 1 2 tcp 576 ------- 0 0.0 2.0 1609 7
+ 0.5488 2 1 ack 40 ------- 0 2.0 0.0 1 14
- 0.5488 2 1 ack 40 ------- 0 2.0 0.0 1 14
r 0.5652 2 1 ack 40 ------- 0 2.0 0.0 1 14
+ 0.5652 1 0 ack 40 ------- 0 2.0 0.0 1 14
- 0.5652 1 0 ack 40 ------- 0 2.0 0.0 1 14
r 0.57552 1 0 ack 40 ------- 0 2.0 0.0 1 14
+ 0.57552 0 1 tcp 576 ------- 0 0.0 2.0 4289 15
- 0.57552 0 1 tcp 576 ------- 0 0.0 2.0 4289 15
+ 0.57552 0 1 tcp 576 ------- 0 0.0 2.0 4825 16
- 0.580128 0 1 tcp 576 ------- 0 0.0 2.0 4825 16
r 0.590128 0 1 tcp 576 ------- 0 0.0 2.0 4289 15
+ 0.590128 1 2 tcp 576 ------- 0 0.0 2.0 4289 15
r 0.594736 0 1 tcp 576 ------- 0 0.0 2.0 4825 16
+ 0.594736 1 2 tcp 576 ------- 0 0.0 2.0 4825 16
- 0.63096 1 2 tcp 576 ------- 0 0.0 2.0 2681 10
r 0.64096 1 2 tcp 576 ------- 0 0.0 2.0 2145 9
+ 0.64096 2 1 ack 40 ------- 0 2.0 0.0 1 17
- 0.64096 2 1 ack 40 ------- 0 2.0 0.0 1 17
r 0.65736 2 1 ack 40 ------- 0 2.0 0.0 1 17
+ 0.65736 1 0 ack 40 ------- 0 2.0 0.0 1 17
- 0.65736 1 0 ack 40 ------- 0 2.0 0.0 1 17
r 0.66768 1 0 ack 40 ------- 0 2.0 0.0 1 17
+ 0.66768 0 1 tcp 576 ------- 0 0.0 2.0 5361 18
- 0.66768 0 1 tcp 576 ------- 0 0.0 2.0 5361 18
+ 0.66768 0 1 tcp 576 ------- 0 0.0 2.0 5897 19
- 0.672288 0 1 tcp 576 ------- 0 0.0 2.0 5897 19
r 0.682288 0 1 tcp 576 ------- 0 0.0 2.0 5361 18
+ 0.682288 1 2 tcp 576 ------- 0 0.0 2.0 5361 18
r 0.686896 0 1 tcp 576 ------- 0 0.0 2.0 5897 19
+ 0.686896 1 2 tcp 576 ------- 0 0.0 2.0 5897 19
- 0.72312 1 2 tcp 576 ------- 0 0.0 2.0 3217 12
r 0.73312 1 2 tcp 576 ------- 0 0.0 2.0 2681 10
+ 0.73312 2 1 ack 40 ------- 0 2.0 0.0 1 20
- 0.73312 2 1 ack 40 ------- 0 2.0 0.0 1 20
r 0.74952 2 1 ack 40 ------- 0 2.0 0.0 1 20
+ 0.74952 1 0 ack 40 ------- 0 2.0 0.0 1 20
- 0.74952 1 0 ack 40 ------- 0 2.0 0.0 1 20
r 0.75984 1 0 ack 40 ------- 0 2.0 0.0 1 20
+ 0.75984 0 1 tcp 576 ------- 0 0.0 2.0 6433 21
- 0.75984 0 1 tcp 576 ------- 0 0.0 2.0 6433 21
+ 0.75984 0 1 tcp 576 ------- 0 0.0 2.0 6969 22
- 0.764448 0 1 tcp 576 ------- 0 0.0 2.0 6969 22
r 0.774448 0 1 tcp 576 ------- 0 0.0 2.0 6433 21
+ 0.774448 1 2 tcp 576 ------- 0 0.0 2.0 6433 21
r 0.779056 0 1 tcp 576 ------- 0 0.0 2.0 6969 22
+ 0.779056 1 2 tcp 576 ------- 0 0.0 2.0 6969 22
- 0.81528 1 2 tcp 576 ------- 0 0.0 2.0 3753 13
r 0.82528 1 2 tcp 576 ------- 0 0.0 2.0 3217 12
+ 0.82528 2 1 ack 40 ------- 0 2.0 0.0 1 23
- 0.82528 2 1 ack 40 ------- 0 2.0 0.0 1 23
r 0.84168 2 1 ack 40 ------- 0 2.0 0.0 1 23
+ 0.84168 1 0 ack 40 ------- 0 2.0 0.0 1 23
- 0.84168 1 0 ack 40 ------- 0 2.0 0.0 1 23
r 0.852 1 0 ack 40 ------- 0 2.0 0.0 1 23
+ 0.852 0 1 tcp 576 ------- 0 0.0 2.0 7505 24
- 0.852 0 1 tcp 576 ------- 0 0.0 2.0 7505 24
+ 0.852 0 1 tcp 576 ------- 0 0.0 2.0 8041 25
- 0.856608 0 1 tcp 576 ------- 0 0.0 2.0 8041 25
r 0.866608 0 1 tcp 576 ------- 0 0.0 2.0 7505 24
+ 0.866608 1 2 tcp 576 ------- 0 0.0 2.0 7505 24
r 0.871216 0 1 tcp 576 ------- 0 0.0 2.0 8041 25
+ 0.871216 1 2 tcp 576 ------- 0 0.0 2.0 8041 25
- 0.90744 1 2 tcp 576 ------- 0 0.0 2.0 4289 15
r 0.91744 1 2 tcp 576 ------- 0 0.0 2.0 3753 13
+ 0.91744 2 1 ack 40 ------- 0 2.0 0.0 1 26
- 0.91744 2 1 ack 40 ------- 0 2.0 0.0 1 26
r 0.93384 2 1 ack 40 ------- 0 2.0 0.0 1 26
+ 0.93384 1 0 ack 40 ------- 0 2.0 0.0 1 26
- 0.93384 1 0 ack 40 ------- 0 2.0 0.0 1 26
r 0.94416 1 0 ack 40 ------- 0 2.0 0.0 1 26
+ 0.94416 0 1 tcp 576 ------- 0 0.0 2.0 8577 27
- 0.94416 0 1 tcp 576 ------- 0 0.0 2.0 8577 27
+ 0.94416 0 1 tcp 576 ------- 0 0.0 2.0 9113 28
- 0.948768 0 1 tcp 576 ------- 0 0.0 2.0 9113 28
r 0.958768 0 1 tcp 576 ------- 0 0.0 2.0 8577 27
+ 0.958768 1 2 tcp 576 ------- 0 0.0 2.0 8577 27
r 0.963376 0 1 tcp 576 ------- 0 0.0 2.0 9113 28
+ 0.963376 1 2 tcp 576 ------- 0 0.0 2.0 9113 28
d 0.963376 1 2 tcp 576 ------- 0 0.0 2.0 9113 28
- 0.9996 1 2 tcp 576 ------- 0 0.0 2.0 4825 16
r 1.0096 1 2 tcp 576 ------- 0 0.0 2.0 4289 15
+ 1.0096 2 1 ack 40 ------- 0 2.0 0.0 1 29
- 1.0096 2 1 ack 40 ------- 0 2.0 0.0 1 29
r 1.026 2 1 ack 40 ------- 0 2.0 0.0 1 29
+ 1.026 1 0 ack 40 ------- 0 2.0 0.0 1 29
- 1.026 1 0 ack 40 ------- 0 2.0 0.0 1 29
r 1.03632 1 0 ack 40 ------- 0 2.0 0.0 1 29
+ 1.03632 0 1 tcp 576 ------- 0 0.0 2.0 9649 30
- 1.03632 0 1 tcp 576 ------- 0 0.0 2.0 9649 30
+ 1.03632 0 1 tcp 576 ------- 0 0.0 2.0 10185 31
- 1.040928 0 1 tcp 576 ------- 0 0.0 2.0 10185 31
r 1.050928 0 1 tcp 576 ------- 0 0.0 2.0 9649 30
+ 1.050928 1 2 tcp 576 ------- 0 0.0 2.0 9649 30
r 1.055536 0 1 tcp 576 ------- 0 0.0 2.0 10185 31
+ 1.055536 1 2 tcp 576 ------- 0 0.0 2.0 10185 31
d 1.055536 1 2 tcp 576 ------- 0 0.0 2.0 10185 31
- 1.09176 1 2 tcp 576 ------- 0 0.0 2.0 5361 18
r 1.10176 1 2 tcp 576 ------- 0 0.0 2.0 4825 16
+ 1.10176 2 1 ack 40 ------- 0 2.0 0.0 1 32
- 1.10176 2 1 ack 40 ------- 0 2.0 0.0 1 32
r 1.11816 2 1 ack 40 ------- 0 2.0 0.0 1 32
+ 1.11816 1 0 ack 40 ------- 0 2.0 0.0 1 32
- 1.11816 1 0 ack 40 ------- 0 2.0 0.0 1 32
r 1.12848 1 0 ack 40 ------- 0 2.0 0.0 1 32
+ 1.12848 0 1 tcp 576 ------- 0 0.0 2.0 10721 33
- 1.12848 0 1 tcp 576 ------- 0 0.0 2.0 10721 33
+ 1.12848 0 1 tcp 576 ------- 0 0.0 2.0 11257 34
- 1.133088 0 1 tcp 576 ------- 0 0.0 2.0 11257 34
r 1.143088 0 1 tcp 576 ------- 0 0.0 2.0 10721 33
+ 1.143088 1 2 tcp 576 ------- 0 0.0 2.0 10721 33
r 1.147696 0 1 tcp 576 ------- 0 0.0 2.0 11257 34
+ 1.147696 1 2 tcp 576 ------- 0 0.0 2.0 11257 34
d 1.147696 1 2 tcp 576 ------- 0 0.0 2.0 11257 34
- 1.18392 1 2 tcp 576 ------- 0 0.0 2.0 5897 19
r 1.19392 1 2 tcp 576 ------- 0 0.0 2.0 5361 18
+ 1.19392 2 1 ack 40 ------- 0 2.0 0.0 1 35
- 1.19392 2 1 ack 40 ------- 0 2.0 0.0 1 35
r 1.21032 2 1 ack 40 ------- 0 2.0 0.0 1 35
+ 1.21032 1 0 ack 40 ------- 0 2.0 0.0 1 35
- 1.21032 1 0 ack 40 ------- 0 2.0 0.0 1 35
r 1.22064 1 0 ack 40 ------- 0 2.0 0.0 1 35
+ 1.22064 0 1 tcp 576 ------- 0 0.0 2.0 11793 36
- 1.22064 0 1 tcp 576 ------- 0 0.0 2.0 11793 36
+ 1.22064 0 1 tcp 576 ------- 0 0.0 2.0 12329 37
- 1.225248 0 1 tcp 576 ------- 0 0.0 2.0 12329 37
r 1.235248 0 1 tcp 576 ------- 0 0.0 2.0 11793 36
+ 1.235248 1 2 tcp 576 ------- 0 0.0 2.0 11793 36
r 1.239856 0 1 tcp 576 ------- 0 0.0 2.0 12329 37
+ 1.239856 1 2 tcp 576 ------- 0 0.0 2.0 12329 37
d 1.239856 1 2 tcp 576 ------- 0 0.0 2.0 12329 37
- 1.27608 1 2 tcp 576 ------- 0 0.0 2.0 6433 21
r 1.28608 1 2 tcp 576 ------- 0 0.0 2.0 5897 19
+ 1.28608 2 1 ack 40 ------- 0 2.0 0.0 1 38
- 1.28608 2 1 ack 40 ------- 0 2.0 0.0 1 38
r 1.30248 2 1 ack 40 ------- 0 2.0 0.0 1 38
+ 1.30248 1 0 ack 40 ------- 0 2.0 0.0 1 38
- 1.30248 1 0 ack 40 ------- 0 2.0 0.0 1 38
r 1.3128 1 0 ack 40 ------- 0 2.0 0.0 1 38
+ 1.3128 0 1 tcp 576 ------- 0 0.0 2.0 12865 39
- 1.3128 0 1 tcp 576 ------- 0 0.0 2.0 12865 39
+ 1.3128 0 1 tcp 576 ------- 0 0.0 2.0 13401 40
- 1.317408 0 1 tcp 576 ------- 0 0.0 2.0 13401 40
r 1.327408 0 1 tcp 576 ------- 0 0.0 2.0 12865 39
+ 1.327408 1 2 tcp 576 ------- 0 0.0 2.0 12865 39
r 1.332016 0 1 tcp 576 ------- 0 0.0 2.0 13401 40
+ 1.332016 1 2 tcp 576 ------- 0 0.0 2.0 13401 40
d 1.332016 1 2 tcp 576 ------- 0 0.0 2.0 13401 40
- 1.36824 1 2 tcp 576 ------- 0 0.0 2.0 6969 22
r 1.37824 1 2 tcp 576 ------- 0 0.0 2.0 6433 21
+ 1.37824 2 1 ack 40 ------- 0 2.0 0.0 1 41
- 1.37824 2 1 ack 40 ------- 0 2.0 0.0 1 41
r 1.39464 2 1 ack 40 ------- 0 2.0 0.0 1 41
+ 1.39464 1 0 ack 40 ------- 0 2.0 0.0 1 41
- 1.39464 1 0 ack 40 ------- 0 2.0 0.0 1 41
r 1.40496 1 0 ack 40 ------- 0 2.0 0.0 1 41
+ 1.40496 0 1 tcp 576 ------- 0 0.0 2.0 13937 42
- 1.40496 0 1 tcp 576 ------- 0 0.0 2.0 13937 42
+ 1.40496 0 1 tcp 576 ------- 0 0.0 2.0 14473 43
- 1.409568 0 1 tcp 576 ------- 0 0.0 2.0 14473 43
r 1.419568 0 1 tcp 576 ------- 0 0.0 2.0 13937 42
+ 1.419568 1 2 tcp 576 ------- 0 0.0 2.0 13937 42
r 1.424176 0 1 tcp 576 ------- 0 0.0 2.0 14473 43
+ 1.424176 1 2 tcp 576 ------- 0 0.0 2.0 14473 43
d 1.424176 1 2 tcp 576 ------- 0 0.0 2.0 14473 43
- 1.4604 1 2 tcp 576 ------- 0 0.0 2.0 7505 24
r 1.4704 1 2 tcp 576 ------- 0 0.0 2.0 6969 22
+ 1.4704 2 1 ack 40 ------- 0 2.0 0.0 1 44
- 1.4704 2 1 ack 40 ------- 0 2.0 0.0 1 44
r 1.4868 2 1 ack 40 ------- 0 2.0 0.0 1 44
+ 1.4868 1 0 ack 40 ------- 0 2.0 0.0 1 44
- 1.4868 1 0 ack 40 ------- 0 2.0 0.0 1 44
r 1.49712 1 0 ack 40 ------- 0 2.0 0.0 1 44
+ 1.49712 0 1 tcp 576 ------- 0 0.0 2.0 15009 45
- 1.49712 0 1 tcp 576 ------- 0 0.0 2.0 15009 45
+ 1.49712 0 1 tcp 576 ------- 0 0.0 2.0 15545 46
- 1.501728 0 1 tcp 576 ------- 0 0.0 2.0 15545 46
r 1.511728 0 1 tcp 576 ------- 0 0.0 2.0 15009 45
+ 1.511728 1 2 tcp 576 ------- 0 0.0 2.0 15009 45
r 1.516336 0 1 tcp 576 ------- 0 0.0 2.0 15545 46
+ 1.516336 1 2 tcp 576 ------- 0 0.0 2.0 15545 46
d 1.516336 1 2 tcp 576 ------- 0 0.0 2.0 15545 46
- 1.55256 1 2 tcp 576 ------- 0 0.0 2.0 8041 25
r 1.56256 1 2 tcp 576 ------- 0 0.0 2.0 7505 24
+ 1.56256 2 1 ack 40 ------- 0 2.0 0.0 1 47
- 1.56256 2 1 ack 40 ------- 0 2.0 0.0 1 47
r 1.57896 2 1 ack 40 ------- 0 2.0 0.0 1 47
+ 1.57896 1 0 ack 40 ------- 0 2.0 0.0 1 47
- 1.57896 1 0 ack 40 ------- 0 2.0 0.0 1 47
r 1.58928 1 0 ack 40 ------- 0 2.0 0.0 1 47
+ 1.58928 0 1 tcp 576 ------- 0 0.0 2.0 16081 48
- 1.58928 0 1 tcp 576 ------- 0 0.0 2.0 16081 48
+ 1.58928 0 1 tcp 576 ------- 0 0.0 2.0 16617 49
- 1.593888 0 1 tcp 576 ------- 0 0.0 2.0 16617 49
r 1.603888 0 1 tcp 576 ------- 0 0.0 2.0 16081 48
+ 1.603888 1 2 tcp 576 ------- 0 0.0 2.0 16081 48
r 1.608496 0 1 tcp 576 ------- 0 0.0 2.0 16617 49
+ 1.608496 1 2 tcp 576 ------- 0 0.0 2.0 16617 49
d 1.608496 1 2 tcp 576 ------- 0 0.0 2.0 16617 49
- 1.64472 1 2 tcp 576 ------- 0 0.0 2.0 8577 27
r 1.65472 1 2 tcp 576 ------- 0 0.0 2.0 8041 25
+ 1.65472 2 1 ack 40 ------- 0 2.0 0.0 1 50
- 1.65472 2 1 ack 40 ------- 0 2.0 0.0 1 50
r 1.67112 2 1 ack 40 ------- 0 2.0 0.0 1 50
+ 1.67112 1 0 ack 40 ------- 0 2.0 0.0 1 50
- 1.67112 1 0 ack 40 ------- 0 2.0 0.0 1 50
r 1.68144 1 0 ack 40 ------- 0 2.0 0.0 1 50
+ 1.68144 0 1 tcp 576 ------- 0 0.0 2.0 17153 51
- 1.68144 0 1 tcp 576 ------- 0 0.0 2.0 17153 51
+ 1.68144 0 1 tcp 576 ------- 0 0.0 2.0 17689 52
- 1.686048 0 1 tcp 576 ------- 0 0.0 2.0 17689 52
r 1.696048 0 1 tcp 576 ------- 0 0.0 2.0 17153 51
+ 1.696048 1 2 tcp 576 ------- 0 0.0 2.0 17153 51
r 1.700656 0 1 tcp 576 ------- 0 0.0 2.0 17689 52
+ 1.700656 1 2 tcp 576 ------- 0 0.0 2.0 17689 52
d 1.700656 1 2 tcp 576 ------- 0 0.0 2.0 17689 52
- 1.73688 1 2 tcp 576 ------- 0 0.0 2.0 9649 30
r 1.74688 1 2 tcp 576 ------- 0 0.0 2.0 8577 27
+ 1.74688 2 1 ack 40 ------- 0 2.0 0.0 1 53
- 1.74688 2 1 ack 40 ------- 0 2.0 0.0 1 53
r 1.76328 2 1 ack 40 ------- 0 2.0 0.0 1 53
+ 1.76328 1 0 ack 40 ------- 0 2.0 0.0 1 53
- 1.76328 1 0 ack 40 ------- 0 2.0 0.0 1 53
r 1.7736 1 0 ack 40 ------- 0 2.0 0.0 1 53
+ 1.7736 0 1 tcp 576 ------- 0 0.0 2.0 18225 54
- 1.7736 0 1 tcp 576 ------- 0 0.0 2.0 18225 54
+ 1.7736 0 1 tcp 576 ------- 0 0.0 2.0 18761 55
- 1.778208 0 1 tcp 576 ------- 0 0.0 2.0 18761 55
r 1.788208 0 1 tcp 576 ------- 0 0.0 2.0 18225 54
+ 1.788208 1 2 tcp 576 ------- 0 0.0 2.0 18225 54
r 1.792816 0 1 tcp 576 ------- 0 0.0 2.0 18761 55
+ 1.792816 1 2 tcp 576 ------- 0 0.0 2.0 18761 55
d 1.792816 1 2 tcp 576 ------- 0 0.0 2.0 18761 55
- 1.82904 1 2 tcp 576 ------- 0 0.0 2.0 10721 33
r 1.83904 1 2 tcp 576 ------- 0 0.0 2.0 9649 30
+ 1.83904 2 1 ack 40 ------- 0 2.0 0.0 1 56
- 1.83904 2 1 ack 40 ------- 0 2.0 0.0 1 56
r 1.85544 2 1 ack 40 ------- 0 2.0 0.0 1 56
+ 1.85544 1 0 ack 40 ------- 0 2.0 0.0 1 56
- 1.85544 1 0 ack 40 ------- 0 2.0 0.0 1 56
r 1.86576 1 0 ack 40 ------- 0 2.0 0.0 1 56
- 1.9212 1 2 tcp 576 ------- 0 0.0 2.0 11793 36
r 1.9312 1 2 tcp 576 ------- 0 0.0 2.0 10721 33
+ 1.9312 2 1 ack 40 ------- 0 2.0 0.0 1 57
- 1.9312 2 1 ack 40 ------- 0 2.0 0.0 1 57
r 1.9476 2 1 ack 40 ------- 0 2.0 0.0 1 57
+ 1.9476 1 0 ack 40 ------- 0 2.0 0.0 1 57
- 1.9476 1 0 ack 40 ------- 0 2.0 0.0 1 57
r 1.95792 1 0 ack 40 ------- 0 2.0 0.0 1 57
- 2.01336 1 2 tcp 576 ------- 0 0.0 2.0 12865 39
r 2.02336 1 2 tcp 576 ------- 0 0.0 2.0 11793 36
+ 2.02336 2 1 ack 40 ------- 0 2.0 0.0 1 58
- 2.02336 2 1 ack 40 ------- 0 2.0 0.0 1 58
r 2.03976 2 1 ack 40 ------- 0 2.0 0.0 1 58
+ 2.03976 1 0 ack 40 ------- 0 2.0 0.0 1 58
- 2.03976 1 0 ack 40 ------- 0 2.0 0.0 1 58
r 2.05008 1 0 ack 40 ------- 0 2.0 0.0 1 58
+ 2.05008 0 1 tcp 576 ------- 0 0.0 2.0 9113 59
- 2.05008 0 1 tcp 576 ------- 0 0.0 2.0 9113 59
r 2.064688 0 1 tcp 576 ------- 0 0.0 2.0 9113 59
+ 2.064688 1 2 tcp 576 ------- 0 0.0 2.0 9113 59
- 2.10552 1 2 tcp 576 ------- 0 0.0 2.0 13937 42
r 2.11552 1 2 tcp 576 ------- 0 0.0 2.0 12865 39
+ 2.11552 2 1 ack 40 ------- 0 2.0 0.0 1 60
- 2.11552 2 1 ack 40 ------- 0 2.0 0.0 1 60
r 2.13192 2 1 ack 40 ------- 0 2.0 0.0 1 60
+ 2.13192 1 0 ack 40 ------- 0 2.0 0.0 1 60
- 2.13192 1 0 ack 40 ------- 0 2.0 0.0 1 60
r 2.14224 1 0 ack 40 ------- 0 2.0 0.0 1 60
- 2.19768 1 2 tcp 576 ------- 0 0.0 2.0 15009 45
r 2.20768 1 2 tcp 576 ------- 0 0.0 2.0 13937 42
+ 2.20768 2 1 ack 40 ------- 0 2.0 0.0 1 61
- 2.20768 2 1 ack 40 ------- 0 2.0 0.0 1 61
r 2.22408 2 1 ack 40 ------- 0 2.0 0.0 1 61
+ 2.22408 1 0 ack 40 ------- 0 2.0 0.0 1 61
- 2.22408 1 0 ack 40 ------- 0 2.0 0.0 1 61
r 2.2344 1 0 ack 40 ------- 0 2.0 0.0 1 61
- 2.28984 1 2 tcp 576 ------- 0 0.0 2.0 16081 48
r 2.29984 1 2 tcp 576 ------- 0 0.0 2.0 15009 45
+ 2.29984 2 1 ack 40 ------- 0 2.0 0.0 1 62
- 2.29984 2 1 ack 40 ------- 0 2.0 0.0 1 62
r 2.31624 2 1 ack 40 ------- 0 2.0 0.0 1 62
+ 2.31624 1 0 ack 40 ------- 0 2.0 0.0 1 62
- 2.31624 1 0 ack 40 ------- 0 2.0 0.0 1 62
r 2.32656 1 0 ack 40 ------- 0 2.0 0.0 1 62
- 2.382 1 2 tcp 576 ------- 0 0.0 2.0 17153 51
r 2.392 1 2 tcp 576 ------- 0 0.0 2.0 16081 48
+ 2.392 2 1 ack 40 ------- 0 2.0 0.0 1 63
- 2.392 2 1 ack 40 ------- 0 2.0 0.0 1 63
r 2.4084 2 1 ack 40 ------- 0 2.0 0.0 1 63
+ 2.4084 1 0 ack 40 ------- 0 2.0 0.0 1 63
- 2.4084 1 0 ack 40 ------- 0 2.0 0.0 1 63
r 2.41872 1 0 ack 40 ------- 0 2.0 0.0 1 63
- 2.47416 1 2 tcp 576 ------- 0 0.0 2.0 18225 54
r 2.48416 1 2 tcp 576 ------- 0 0.0 2.0 17153 51
+ 2.48416 2 1 ack 40 ------- 0 2.0 0.0 1 64
- 2.48416 2 1 ack 40 ------- 0 2.0 0.0 1 64
r 2.50056 2 1 ack 40 ------- 0 2.0 0.0 1 64
+ 2.50056 1 0 ack 40 ------- 0 2.0 0.0 1 64
- 2.50056 1 0 ack 40 ------- 0 2.0 0.0 1 64
r 2.51088 1 0 ack 40 ------- 0 2.0 0.0 1 64
- 2.56632 1 2 tcp 576 ------- 0 0.0 2.0 9113 59
r 2.57632 1 2 tcp 576 ------- 0 0.0 2.0 18225 54
+ 2.57632 2 1 ack 40 ------- 0 2.0 0.0 1 65
- 2.57632 2 1 ack 40 ------- 0 2.0 0.0 1 65
r 2.59272 2 1 ack 40 ------- 0 2.0 0.0 1 65
+ 2.59272 1 0 ack 40 ------- 0 2.0 0.0 1 65
- 2.59272 1 0 ack 40 ------- 0 2.0 0.0 1 65
r 2.60304 1 0 ack 40 ------- 0 2.0 0.0 1 65
r 2.66848 1 2 tcp 576 ------- 0 0.0 2.0 9113 59
+ 2.66848 2 1 ack 40 ------- 0 2.0 0.0 1 66
- 2.66848 2 1 ack 40 ------- 0 2.0 0.0 1 66
r 2.68488 2 1 ack 40 ------- 0 2.0 0.0 1 66
+ 2.68488 1 0 ack 40 ------- 0 2.0 0.0 1 66
- 2.68488 1 0 ack 40 ------- 0 2.0 0.0 1 66
r 2.6952 1 0 ack 40 ------- 0 2.0 0.0 1 66
+ 3.8952 0 1 tcp 576 ------- 0 0.0 2.0 10185 67
- 3.8952 0 1 tcp 576 ------- 0 0.0 2.0 10185 67
r 3.909808 0 1 tcp 576 ------- 0 0.0 2.0 10185 67
+ 3.909808 1 2 tcp 576 ------- 0 0.0 2.0 10185 67
- 3.909808 1 2 tcp 576 ------- 0 0.0 2.0 10185 67
r 4.011968 1 2 tcp 576 ------- 0 0.0 2.0 10185 67
+ 4.011968 2 1 ack 40 ------- 0 2.0 0.0 1 68
- 4.011968 2 1 ack 40 ------- 0 2.0 0.0 1 68
r 4.028368 2 1 ack 40 ------- 0 2.0 0.0 1 68
+ 4.028368 1 0 ack 40 ------- 0 2.0 0.0 1 68
- 4.028368 1 0 ack 40 ------- 0 2.0 0.0 1 68
r 4.038688 1 0 ack 40 ------- 0 2.0 0.0 1 68
+ 4.038688 0 1 tcp 576 ------- 0 0.0 2.0 11257 69
- 4.038688 0 1 tcp 576 ------- 0 0.0 2.0 11257 69
+ 4.038688 0 1 tcp 576 ------- 0 0.0 2.0 11793 70
- 4.043296 0 1 tcp 576 ------- 0 0.0 2.0 11793 70
r 4.053296 0 1 tcp 576 ------- 0 0.0 2.0 11257 69
+ 4.053296 1 2 tcp 576 ------- 0 0.0 2.0 11257 69
- 4.053296 1 2 tcp 576 ------- 0 0.0 2.0 11257 69
r 4.057904 0 1 tcp 576 ------- 0 0.0 2.0 11793 70
+ 4.057904 1 2 tcp 576 ------- 0 0.0 2.0 11793 70
- 4.145456 1 2 tcp 576 ------- 0 0.0 2.0 11793 70
r 4.155456 1 2 tcp 576 ------- 0 0.0 2.0 11257 69
+ 4.155456 2 1 ack 40 ------- 0 2.0 0.0 1 71
- 4.155456 2 1 ack 40 ------- 0 2.0 0.0 1 71
r 4.171856 2 1 ack 40 ------- 0 2.0 0.0 1 71
+ 4.171856 1 0 ack 40 ------- 0 2.0 0.0 1 71
- 4.171856 1 0 ack 40 ------- 0 2.0 0.0 1 71
r 4.182176 1 0 ack 40 ------- 0 2.0 0.0 1 71
+ 4.182176 0 1 tcp 576 ------- 0 0.0 2.0 12329 72
- 4.182176 0 1 tcp 576 ------- 0 0.0 2.0 12329 72
+ 4.182176 0 1 tcp 576 ------- 0 0.0 2.0 12865 73
+ 4.182176 0 1 tcp 576 ------- 0 0.0 2.0 13401 74
- 4.186784 0 1 tcp 576 ------- 0 0.0 2.0 12865 73
- 4.191392 0 1 tcp 576 ------- 0 0.0 2.0 13401 74
r 4.196784 0 1 tcp 576 ------- 0 0.0 2.0 12329 72
+ 4.196784 1 2 tcp 576 ------- 0 0.0 2.0 12329 72
r 4.201392 0 1 tcp 576 ------- 0 0.0 2.0 12865 73
+ 4.201392 1 2 tcp 576 ------- 0 0.0 2.0 12865 73
r 4.206 0 1 tcp 576 ------- 0 0.0 2.0 13401 74
+ 4.206 1 2 tcp 576 ------- 0 0.0 2.0 13401 74
- 4.237616 1 2 tcp 576 ------- 0 0.0 2.0 12329 72
r 4.247616 1 2 tcp 576 ------- 0 0.0 2.0 11793 70
+ 4.247616 2 1 ack 40 ------- 0 2.0 0.0 1 75
- 4.247616 2 1 ack 40 ------- 0 2.0 0.0 1 75
r 4.264016 2 1 ack 40 ------- 0 2.0 0.0 1 75
+ 4.264016 1 0 ack 40 ------- 0 2.0 0.0 1 75
- 4.264016 1 0 ack 40 ------- 0 2.0 0.0 1 75
r 4.274336 1 0 ack 40 ------- 0 2.0 0.0 1 75
- 4.329776 1 2 tcp 576 ------- 0 0.0 2.0 12865 73
r 4.339776 1 2 tcp 576 ------- 0 0.0 2.0 12329 72
+ 4.339776 2 1 ack 40 ------- 0 2.0 0.0 1 76
- 4.339776 2 1 ack 40 ------- 0 2.0 0.0 1 76
r 4.356176 2 1 ack 40 ------- 0 2.0 0.0 1 76
+ 4.356176 1 0 ack 40 ------- 0 2.0 0.0 1 76
- 4.356176 1 0 ack 40 ------- 0 2.0 0.0 1 76
r 4.366496 1 0 ack 40 ------- 0 2.0 0.0 1 76
+ 4.366496 0 1 tcp 576 ------- 0 0.0 2.0 13937 77
- 4.366496 0 1 tcp 576 ------- 0 0.0 2.0 13937 77
+ 4.366496 0 1 tcp 576 ------- 0 0.0 2.0 14473 78
+ 4.366496 0 1 tcp 576 ------- 0 0.0 2.0 15009 79
- 4.371104 0 1 tcp 576 ------- 0 0.0 2.0 14473 78
- 4.375712 0 1 tcp 576 ------- 0 0.0 2.0 15009 79
r 4.381104 0 1 tcp 576 ------- 0 0.0 2.0 13937 77
+ 4.381104 1 2 tcp 576 ------- 0 0.0 2.0 13937 77
r 4.385712 0 1 tcp 576 ------- 0 0.0 2.0 14473 78
+ 4.385712 1 2 tcp 576 ------- 0 0.0 2.0 14473 78
r 4.39032 0 1 tcp 576 ------- 0 0.0 2.0 15009 79
+ 4.39032 1 2 tcp 576 ------- 0 0.0 2.0 15009 79
- 4.421936 1 2 tcp 576 ------- 0 0.0 2.0 13401 74
r 4.431936 1 2 tcp 576 ------- 0 0.0 2.0 12865 73
+ 4.431936 2 1 ack 40 ------- 0 2.0 0.0 1 80
- 4.431936 2 1 ack 40 ------- 0 2.0 0.0 1 80
r 4.448336 2 1 ack 40 ------- 0 2.0 0.0 1 80
+ 4.448336 1 0 ack 40 ------- 0 2.0 0.0 1 80
- 4.448336 1 0 ack 40 ------- 0 2.0 0.0 1 80
r 4.458656 1 0 ack 40 ------- 0 2.0 0.0 1 80
- 4.514096 1 2 tcp 576 ------- 0 0.0 2.0 13937 77
r 4.524096 1 2 tcp 576 ------- 0 0.0 2.0 13401 74
+ 4.524096 2 1 ack 40 ------- 0 2.0 0.0 1 81
- 4.524096 2 1 ack 40 ------- 0 2.0 0.0 1 81
r 4.540496 2 1 ack 40 ------- 0 2.0 0.0 1 81
+ 4.540496 1 0 ack 40 ------- 0 2.0 0.0 1 81
- 4.540496 1 0 ack 40 ------- 0 2.0 0.0 1 81
r 4.550816 1 0 ack 40 ------- 0 2.0 0.0 1 81
+ 4.550816 0 1 tcp 576 ------- 0 0.0 2.0 15545 82
- 4.550816 0 1 tcp 576 ------- 0 0.0 2.0 15545 82
+ 4.550816 0 1 tcp 576 ------- 0 0.0 2.0 16081 83
- 4.555424 0 1 tcp 576 ------- 0 0.0 2.0 16081 83
r 4.565424 0 1 tcp 576 ------- 0 0.0 2.0 15545 82
+ 4.565424 1 2 tcp 576 ------- 0 0.0 2.0 15545 82
r 4.570032 0 1 tcp 576 ------- 0 0.0 2.0 16081 83
+ 4.570032 1 2 tcp 576 ------- 0 0.0 2.0 16081 83
- 4.606256 1 2 tcp 576 ------- 0 0.0 2.0 14473 78
r 4.616256 1 2 tcp 576 ------- 0 0.0 2.0 13937 77
+ 4.616256 2 1 ack 40 ------- 0 2.0 0.0 1 84
- 4.616256 2 1 ack 40 ------- 0 2.0 0.0 1 84
r 4.632656 2 1 ack 40 ------- 0 2.0 0.0 1 84
+ 4.632656 1 0 ack 40 ------- 0 2.0 0.0 1 84
- 4.632656 1 0 ack 40 ------- 0 2.0 0.0 1 84
r 4.642976 1 0 ack 40 ------- 0 2.0 0.0 1 84
- 4.698416 1 2 tcp 576 ------- 0 0.0 2.0 15009 79
r 4.708416 1 2 tcp 576 ------- 0 0.0 2.0 14473 78
+ 4.708416 2 1 ack 40 ------- 0 2.0 0.0 1 85
- 4.708416 2 1 ack 40 ------- 0 2.0 0.0 1 85
r 4.724816 2 1 ack 40 ------- 0 2.0 0.0 1 85
+ 4.724816 1 0 ack 40 ------- 0 2.0 0.0 1 85
- 4.724816 1 0 ack 40 ------- 0 2.0 0.0 1 85
r 4.735136 1 0 ack 40 ------- 0 2.0 0.0 1 85
+ 4.735136 0 1 tcp 576 ------- 0 0.0 2.0 16617 86
- 4.735136 0 1 tcp 576 ------- 0 0.0 2.0 16617 86
+ 4.735136 0 1 tcp 576 ------- 0 0.0 2.0 17153 87
- 4.739744 0 1 tcp 576 ------- 0 0.0 2.0 17153 87
r 4.749744 0 1 tcp 576 ------- 0 0.0 2.0 16617 86
+ 4.749744 1 2 tcp 576 ------- 0 0.0 2.0 16617 86
r 4.754352 0 1 tcp 576 ------- 0 0.0 2.0 17153 87
+ 4.754352 1 2 tcp 576 ------- 0 0.0 2.0 17153 87
- 4.790576 1 2 tcp 576 ------- 0 0.0 2.0 15545 82
r 4.800576 1 2 tcp 576 ------- 0 0.0 2.0 15009 79
+ 4.800576 2 1 ack 40 ------- 0 2.0 0.0 1 88
- 4.800576 2 1 ack 40 ------- 0 2.0 0.0 1 88
r 4.816976 2 1 ack 40 ------- 0 2.0 0.0 1 88
+ 4.816976 1 0 ack 40 ------- 0 2.0 0.0 1 88
- 4.816976 1 0 ack 40 ------- 0 2.0 0.0 1 88
r 4.827296 1 0 ack 40 ------- 0 2.0 0.0 1 88
- 4.882736 1 2 tcp 576 ------- 0 0.0 2.0 16081 83
r 4.892736 1 2 tcp 576 ------- 0 0.0 2.0 15545 82
+ 4.892736 2 1 ack 40 ------- 0 2.0 0.0 1 89
- 4.892736 2 1 ack 40 ------- 0 2.0 0.0 1 89
r 4.909136 2 1 ack 40 ------- 0 2.0 0.0 1 89
+ 4.909136 1 0 ack 40 ------- 0 2.0 0.0 1 89
- 4.909136 1 0 ack 40 ------- 0 2.0 0.0 1 89
r 4.919456 1 0 ack 40 ------- 0 2.0 0.0 1 89
+ 4.919456 0 1 tcp 576 ------- 0 0.0 2.0 17689 90
- 4.919456 0 1 tcp 576 ------- 0 0.0 2.0 17689 90
+ 4.919456 0 1 tcp 576 ------- 0 0.0 2.0 18225 91
- 4.924064 0 1 tcp 576 ------- 0 0.0 2.0 18225 91
r 4.934064 0 1 tcp 576 ------- 0 0.0 2.0 17689 90
+ 4.934064 1 2 tcp 576 ------- 0 0.0 2.0 17689 90
r 4.938672 0 1 tcp 576 ------- 0 0.0 2.0 18225 91
+ 4.938672 1 2 tcp 576 ------- 0 0.0 2.0 18225 91
- 4.974896 1 2 tcp 576 ------- 0 0.0 2.0 16617 86
r 4.984896 1 2 tcp 576 ------- 0 0.0 2.0 16081 83
+ 4.984896 2 1 ack 40 ------- 0 2.0 0.0 1 92
- 4.984896 2 1 ack 40 ------- 0 2.0 0.0 1 92
r 5.001296 2 1 ack 40 ------- 0 2.0 0.0 1 92
+ 5.001296 1 0 ack 40 ------- 0 2.0 0.0 1 92
- 5.001296 1 0 ack 40 ------- 0 2.0 0.0 1 92
r 5.011616 1 0 ack 40 ------- 0 2.0 0.0 1 92
- 5.067056 1 2 tcp 576 ------- 0 0.0 2.0 17153 87
r 5.077056 1 2 tcp 576 ------- 0 0.0 2.0 16617 86
+ 5.077056 2 1 ack 40 ------- 0 2.0 0.0 1 93
- 5.077056 2 1 ack 40 ------- 0 2.0 0.0 1 93
r 5.093456 2 1 ack 40 ------- 0 2.0 0.0 1 93
+ 5.093456 1 0 ack 40 ------- 0 2.0 0.0 1 93
- 5.093456 1 0 ack 40 ------- 0 2.0 0.0 1 93
r 5.103776 1 0 ack 40 ------- 0 2.0 0.0 1 93
+ 5.103776 0 1 tcp 576 ------- 0 0.0 2.0 18761 94
- 5.103776 0 1 tcp 576 ------- 0 0.0 2.0 18761 94
+ 5.103776 0 1 tcp 576 ---A--- 0 0.0 2.0 19297 95
- 5.108384 0 1 tcp 576 ---A--- 0 0.0 2.0 19297 95
r 5.118384 0 1 tcp 576 ------- 0 0.0 2.0 18761 94
+ 5.118384 1 2 tcp 576 ------- 0 0.0 2.0 18761 94
r 5.122992 0 1 tcp 576 ---A--- 0 0.0 2.0 19297 95
+ 5.122992 1 2 tcp 576 ---A--- 0 0.0 2.0 19297 95
- 5.159216 1 2 tcp 576 ------- 0 0.0 2.0 17689 90
r 5.169216 1 2 tcp 576 ------- 0 0.0 2.0 17153 87
+ 5.169216 2 1 ack 40 ------- 0 2.0 0.0 1 96
- 5.169216 2 1 ack 40 ------- 0 2.0 0.0 1 96
r 5.185616 2 1 ack 40 ------- 0 2.0 0.0 1 96
+ 5.185616 1 0 ack 40 ------- 0 2.0 0.0 1 96
- 5.185616 1 0 ack 40 ------- 0 2.0 0.0 1 96
r 5.195936 1 0 ack 40 ------- 0 2.0 0.0 1 96
- 5.251376 1 2 tcp 576 ------- 0 0.0 2.0 18225 91
r 5.261376 1 2 tcp 576 ------- 0 0.0 2.0 17689 90
+ 5.261376 2 1 ack 40 ------- 0 2.0 0.0 1 97
- 5.261376 2 1 ack 40 ------- 0 2.0 0.0 1 97
r 5.277776 2 1 ack 40 ------- 0 2.0 0.0 1 97
+ 5.277776 1 0 ack 40 ------- 0 2.0 0.0 1 97
- 5.277776 1 0 ack 40 ------- 0 2.0 0.0 1 97
r 5.288096 1 0 ack 40 ------- 0 2.0 0.0 1 97
+ 5.288096 0 1 tcp 576 ------- 0 0.0 2.0 19833 98
- 5.288096 0 1 tcp 576 ------- 0 0.0 2.0 19833 98
+ 5.288096 0 1 tcp 576 ------- 0 0.0 2.0 20369 99
+ 5.288096 0 1 tcp 576 ------- 0 0.0 2.0 20905 100
- 5.292704 0 1 tcp 576 ------- 0 0.0 2.0 20369 99
- 5.297312 0 1 tcp 576 ------- 0 0.0 2.0 20905 100
r 5.302704 0 1 tcp 576 ------- 0 0.0 2.0 19833 98
+ 5.302704 1 2 tcp 576 ------- 0 0.0 2.0 19833 98
r 5.307312 0 1 tcp 576 ------- 0 0.0 2.0 20369 99
+ 5.307312 1 2 tcp 576 ------- 0 0.0 2.0 20369 99
r 5.31192 0 1 tcp 576 ------- 0 0.0 2.0 20905 100
+ 5.31192 1 2 tcp 576 ------- 0 0.0 2.0 20905 100
- 5.343536 1 2 tcp 576 ------- 0 0.0 2.0 18761 94
r 5.353536 1 2 tcp 576 ------- 0 0.0 2.0 18225 91
+ 5.353536 2 1 ack 40 ------- 0 2.0 0.0 1 101
- 5.353536 2 1 ack 40 ------- 0 2.0 0.0 1 101
r 5.369936 2 1 ack 40 ------- 0 2.0 0.0 1 101
+ 5.369936 1 0 ack 40 ------- 0 2.0 0.0 1 101
- 5.369936 1 0 ack 40 ------- 0 2.0 0.0 1 101
r 5.380256 1 0 ack 40 ------- 0 2.0 0.0 1 101
- 5.435696 1 2 tcp 576 ---A--- 0 0.0 2.0 19297 95
r 5.445696 1 2 tcp 576 ------- 0 0.0 2.0 18761 94
+ 5.445696 2 1 ack 40 ------- 0 2.0 0.0 1 102
- 5.445696 2 1 ack 40 ------- 0 2.0 0.0 1 102
r 5.462096 2 1 ack 40 ------- 0 2.0 0.0 1 102
+ 5.462096 1 0 ack 40 ------- 0 2.0 0.0 1 102
- 5.462096 1 0 ack 40 ------- 0 2.0 0.0 1 102
r 5.472416 1 0 ack 40 ------- 0 2.0 0.0 1 102
+ 5.472416 0 1 tcp 576 ------- 0 0.0 2.0 21441 103
- 5.472416 0 1 tcp 576 ------- 0 0.0 2.0 21441 103
r 5.487024 0 1 tcp 576 ------- 0 0.0 2.0 21441 103
+ 5.487024 1 2 tcp 576 ------- 0 0.0 2.0 21441 103
- 5.527856 1 2 tcp 576 ------- 0 0.0 2.0 19833 98
r 5.537856 1 2 tcp 576 ---A--- 0 0.0 2.0 19297 95
+ 5.537856 2 1 ack 40 ------- 0 2.0 0.0 1 104
- 5.537856 2 1 ack 40 ------- 0 2.0 0.0 1 104
r 5.554256 2 1 ack 40 ------- 0 2.0 0.0 1 104
+ 5.554256 1 0 ack 40 ------- 0 2.0 0.0 1 104
- 5.554256 1 0 ack 40 ------- 0 2.0 0.0 1 104
r 5.564576 1 0 ack 40 ------- 0 2.0 0.0 1 104
+ 5.564576 0 1 tcp 576 ------- 0 0.0 2.0 21977 105
- 5.564576 0 1 tcp 576 ------- 0 0.0 2.0 21977 105
r 5.579184 0 1 tcp 576 ------- 0 0.0 2.0 21977 105
+ 5.579184 1 2 tcp 576 ------- 0 0.0 2.0 21977 105
- 5.620016 1 2 tcp 576 ------- 0 0.0 2.0 20369 99
r 5.630016 1 2 tcp 576 ------- 0 0.0 2.0 19833 98
+ 5.630016 2 1 ack 40 ------- 0 2.0 0.0 1 106
- 5.630016 2 1 ack 40 ------- 0 2.0 0.0 1 106
r 5.646416 2 1 ack 40 ------- 0 2.0 0.0 1 106
+ 5.646416 1 0 ack 40 ------- 0 2.0 0.0 1 106
- 5.646416 1 0 ack 40 ------- 0 2.0 0.0 1 106
r 5.656736 1 0 ack 40 ------- 0 2.0 0.0 1 106
+ 5.656736 0 1 tcp 576 ------- 0 0.0 2.0 22513 107
- 5.656736 0 1 tcp 576 ------- 0 0.0 2.0 22513 107
r 5.671344 0 1 tcp 576 ------- 0 0.0 2.0 22513 107
+ 5.671344 1 2 tcp 576 ------- 0 0.0 2.0 22513 107
- 5.712176 1 2 tcp 576 ------- 0 0.0 2.0 20905 100
r 5.722176 1 2 tcp 576 ------- 0 0.0 2.0 20369 99
+ 5.722176 2 1 ack 40 ------- 0 2.0 0.0 1 108
- 5.722176 2 1 ack 40 ------- 0 2.0 0.0 1 108
r 5.738576 2 1 ack 40 ------- 0 2.0 0.0 1 108
+ 5.738576 1 0 ack 40 ------- 0 2.0 0.0 1 108
- 5.738576 1 0 ack 40 ------- 0 2.0 0.0 1 108
r 5.748896 1 0 ack 40 ------- 0 2.0 0.0 1 108
+ 5.748896 0 1 tcp 576 ------- 0 0.0 2.0 23049 109
- 5.748896 0 1 tcp 576 ------- 0 0.0 2.0 23049 109