+ 0 0 2 tcp 40 ------- 1 0.0 4.0 0 0
- 0 0 2 tcp 40 ------- 1 0.0 4.0 0 0
r 0.002032 0 2 tcp 40 ------- 1 0.0 4.0 0 0
+ 0.002032 2 3 tcp 40 ------- 1 0.0 4.0 0 0
- 0.002032 2 3 tcp 40 ------- 1 0.0 4.0 0 0
r 0.022245 2 3 tcp 40 ------- 1 0.0 4.0 0 0
+ 0.022245 3 4 tcp 40 ------- 1 0.0 4.0 0 0
- 0.022245 3 4 tcp 40 ------- 1 0.0 4.0 0 0
r 0.026277 3 4 tcp 40 ------- 1 0.0 4.0 0 0
+ 0.026277 4 3 ack 40 ------- 1 4.0 0.0 0 1
- 0.026277 4 3 ack 40 ------- 1 4.0 0.0 0 1
r 0.030309 4 3 ack 40 ------- 1 4.0 0.0 0 1
+ 0.030309 3 2 ack 40 ------- 1 4.0 0.0 0 1
- 0.030309 3 2 ack 40 ------- 1 4.0 0.0 0 1
r 0.050523 3 2 ack 40 ------- 1 4.0 0.0 0 1
+ 0.050523 2 0 ack 40 ------- 1 4.0 0.0 0 1
- 0.050523 2 0 ack 40 ------- 1 4.0 0.0 0 1
r 0.052555 2 0 ack 40 ------- 1 4.0 0.0 0 1
+ 0.052555 0 2 tcp 1040 ------- 1 0.0 4.0 1 2
- 0.052555 0 2 tcp 1040 ------- 1 0.0 4.0 1 2
+ 0.052555 0 2 tcp 1040 ------- 1 0.0 4.0 2 3
- 0.053387 0 2 tcp 1040 ------- 1 0.0 4.0 2 3
r 0.055387 0 2 tcp 1040 ------- 1 0.0 4.0 1 2
+ 0.055387 2 3 tcp 1040 ------- 1 0.0 4.0 1 2
- 0.055387 2 3 tcp 1040 ------- 1 0.0 4.0 1 2
r 0.056219 0 2 tcp 1040 ------- 1 0.0 4.0 2 3
+ 0.056219 2 3 tcp 1040 ------- 1 0.0 4.0 2 3
- 0.060933 2 3 tcp 1040 ------- 1 0.0 4.0 2 3
r 0.080933 2 3 tcp 1040 ------- 1 0.0 4.0 1 2
+ 0.080933 3 4 tcp 1040 ------- 1 0.0 4.0 1 2
- 0.080933 3 4 tcp 1040 ------- 1 0.0 4.0 1 2
r 0.085765 3 4 tcp 1040 ------- 1 0.0 4.0 1 2
+ 0.085765 4 3 ack 40 ------- 1 4.0 0.0 1 4
- 0.085765 4 3 ack 40 ------- 1 4.0 0.0 1 4
r 0.08648 2 3 tcp 1040 ------- 1 0.0 4.0 2 3
+ 0.08648 3 4 tcp 1040 ------- 1 0.0 4.0 2 3
- 0.08648 3 4 tcp 1040 ------- 1 0.0 4.0 2 3
r 0.089797 4 3 ack 40 ------- 1 4.0 0.0 1 4
+ 0.089797 3 2 ack 40 ------- 1 4.0 0.0 1 4
- 0.089797 3 2 ack 40 ------- 1 4.0 0.0 1 4
r 0.091312 3 4 tcp 1040 ------- 1 0.0 4.0 2 3
+ 0.091312 4 3 ack 40 ------- 1 4.0 0.0 2 5
- 0.091312 4 3 ack 40 ------- 1 4.0 0.0 2 5
r 0.095344 4 3 ack 40 ------- 1 4.0 0.0 2 5
+ 0.095344 3 2 ack 40 ------- 1 4.0 0.0 2 5
- 0.095344 3 2 ack 40 ------- 1 4.0 0.0 2 5
r 0.110011 3 2 ack 40 ------- 1 4.0 0.0 1 4
+ 0.110011 2 0 ack 40 ------- 1 4.0 0.0 1 4
- 0.110011 2 0 ack 40 ------- 1 4.0 0.0 1 4
r 0.112043 2 0 ack 40 ------- 1 4.0 0.0 1 4
+ 0.112043 0 2 tcp 1040 ------- 1 0.0 4.0 3 6
- 0.112043 0 2 tcp 1040 ------- 1 0.0 4.0 3 6
+ 0.112043 0 2 tcp 1040 ------- 1 0.0 4.0 4 7
- 0.112875 0 2 tcp 1040 ------- 1 0.0 4.0 4 7
r 0.114875 0 2 tcp 1040 ------- 1 0.0 4.0 3 6
+ 0.114875 2 3 tcp 1040 ------- 1 0.0 4.0 3 6
- 0.114875 2 3 tcp 1040 ------- 1 0.0 4.0 3 6
r 0.115557 3 2 ack 40 ------- 1 4.0 0.0 2 5
+ 0.115557 2 0 ack 40 ------- 1 4.0 0.0 2 5
- 0.115557 2 0 ack 40 ------- 1 4.0 0.0 2 5
r 0.115707 0 2 tcp 1040 ------- 1 0.0 4.0 4 7
+ 0.115707 2 3 tcp 1040 ------- 1 0.0 4.0 4 7
r 0.117589 2 0 ack 40 ------- 1 4.0 0.0 2 5
+ 0.117589 0 2 tcp 1040 ------- 1 0.0 4.0 5 8
- 0.117589 0 2 tcp 1040 ------- 1 0.0 4.0 5 8
+ 0.117589 0 2 tcp 1040 ------- 1 0.0 4.0 6 9
- 0.118421 0 2 tcp 1040 ------- 1 0.0 4.0 6 9
- 0.120421 2 3 tcp 1040 ------- 1 0.0 4.0 4 7
r 0.120421 0 2 tcp 1040 ------- 1 0.0 4.0 5 8
+ 0.120421 2 3 tcp 1040 ------- 1 0.0 4.0 5 8
r 0.121253 0 2 tcp 1040 ------- 1 0.0 4.0 6 9
+ 0.121253 2 3 tcp 1040 ------- 1 0.0 4.0 6 9
- 0.125968 2 3 tcp 1040 ------- 1 0.0 4.0 5 8
- 0.131515 2 3 tcp 1040 ------- 1 0.0 4.0 6 9
r 0.140421 2 3 tcp 1040 ------- 1 0.0 4.0 3 6
+ 0.140421 3 4 tcp 1040 ------- 1 0.0 4.0 3 6
- 0.140421 3 4 tcp 1040 ------- 1 0.0 4.0 3 6
r 0.145253 3 4 tcp 1040 ------- 1 0.0 4.0 3 6
+ 0.145253 4 3 ack 40 ------- 1 4.0 0.0 3 10
- 0.145253 4 3 ack 40 ------- 1 4.0 0.0 3 10
r 0.145968 2 3 tcp 1040 ------- 1 0.0 4.0 4 7
+ 0.145968 3 4 tcp 1040 ------- 1 0.0 4.0 4 7
- 0.145968 3 4 tcp 1040 ------- 1 0.0 4.0 4 7
r 0.149285 4 3 ack 40 ------- 1 4.0 0.0 3 10
+ 0.149285 3 2 ack 40 ------- 1 4.0 0.0 3 10
- 0.149285 3 2 ack 40 ------- 1 4.0 0.0 3 10
r 0.1508 3 4 tcp 1040 ------- 1 0.0 4.0 4 7
+ 0.1508 4 3 ack 40 ------- 1 4.0 0.0 4 11
- 0.1508 4 3 ack 40 ------- 1 4.0 0.0 4 11
r 0.151515 2 3 tcp 1040 ------- 1 0.0 4.0 5 8
+ 0.151515 3 4 tcp 1040 ------- 1 0.0 4.0 5 8
- 0.151515 3 4 tcp 1040 ------- 1 0.0 4.0 5 8
r 0.154832 4 3 ack 40 ------- 1 4.0 0.0 4 11
+ 0.154832 3 2 ack 40 ------- 1 4.0 0.0 4 11
- 0.154832 3 2 ack 40 ------- 1 4.0 0.0 4 11
r 0.156347 3 4 tcp 1040 ------- 1 0.0 4.0 5 8
+ 0.156347 4 3 ack 40 ------- 1 4.0 0.0 5 12
- 0.156347 4 3 ack 40 ------- 1 4.0 0.0 5 12
r 0.157061 2 3 tcp 1040 ------- 1 0.0 4.0 6 9
+ 0.157061 3 4 tcp 1040 ------- 1 0.0 4.0 6 9
- 0.157061 3 4 tcp 1040 ------- 1 0.0 4.0 6 9
r 0.160379 4 3 ack 40 ------- 1 4.0 0.0 5 12
+ 0.160379 3 2 ack 40 ------- 1 4.0 0.0 5 12
- 0.160379 3 2 ack 40 ------- 1 4.0 0.0 5 12
r 0.161893 3 4 tcp 1040 ------- 1 0.0 4.0 6 9
+ 0.161893 4 3 ack 40 ------- 1 4.0 0.0 6 13
- 0.161893 4 3 ack 40 ------- 1 4.0 0.0 6 13
r 0.165925 4 3 ack 40 ------- 1 4.0 0.0 6 13
+ 0.165925 3 2 ack 40 ------- 1 4.0 0.0 6 13
- 0.165925 3 2 ack 40 ------- 1 4.0 0.0 6 13
r 0.169499 3 2 ack 40 ------- 1 4.0 0.0 3 10
+ 0.169499 2 0 ack 40 ------- 1 4.0 0.0 3 10
- 0.169499 2 0 ack 40 ------- 1 4.0 0.0 3 10
r 0.171531 2 0 ack 40 ------- 1 4.0 0.0 3 10
+ 0.171531 0 2 tcp 1040 ------- 1 0.0 4.0 7 14
- 0.171531 0 2 tcp 1040 ------- 1 0.0 4.0 7 14
+ 0.171531 0 2 tcp 1040 ------- 1 0.0 4.0 8 15
- 0.172363 0 2 tcp 1040 ------- 1 0.0 4.0 8 15
r 0.174363 0 2 tcp 1040 ------- 1 0.0 4.0 7 14
+ 0.174363 2 3 tcp 1040 ------- 1 0.0 4.0 7 14
- 0.174363 2 3 tcp 1040 ------- 1 0.0 4.0 7 14
r 0.175045 3 2 ack 40 ------- 1 4.0 0.0 4 11
+ 0.175045 2 0 ack 40 ------- 1 4.0 0.0 4 11
- 0.175045 2 0 ack 40 ------- 1 4.0 0.0 4 11
r 0.175195 0 2 tcp 1040 ------- 1 0.0 4.0 8 15
+ 0.175195 2 3 tcp 1040 ------- 1 0.0 4.0 8 15
r 0.177077 2 0 ack 40 ------- 1 4.0 0.0 4 11
+ 0.177077 0 2 tcp 1040 ------- 1 0.0 4.0 9 16
- 0.177077 0 2 tcp 1040 ------- 1 0.0 4.0 9 16
+ 0.177077 0 2 tcp 1040 ------- 1 0.0 4.0 10 17
- 0.177909 0 2 tcp 1040 ------- 1 0.0 4.0 10 17
- 0.179909 2 3 tcp 1040 ------- 1 0.0 4.0 8 15
r 0.179909 0 2 tcp 1040 ------- 1 0.0 4.0 9 16
+ 0.179909 2 3 tcp 1040 ------- 1 0.0 4.0 9 16
r 0.180592 3 2 ack 40 ------- 1 4.0 0.0 5 12
+ 0.180592 2 0 ack 40 ------- 1 4.0 0.0 5 12
- 0.180592 2 0 ack 40 ------- 1 4.0 0.0 5 12
r 0.180741 0 2 tcp 1040 ------- 1 0.0 4.0 10 17
+ 0.180741 2 3 tcp 1040 ------- 1 0.0 4.0 10 17
r 0.182624 2 0 ack 40 ------- 1 4.0 0.0 5 12
+ 0.182624 0 2 tcp 1040 ------- 1 0.0 4.0 11 18
- 0.182624 0 2 tcp 1040 ------- 1 0.0 4.0 11 18
+ 0.182624 0 2 tcp 1040 ------- 1 0.0 4.0 12 19
- 0.183456 0 2 tcp 1040 ------- 1 0.0 4.0 12 19
r 0.185456 0 2 tcp 1040 ------- 1 0.0 4.0 11 18
+ 0.185456 2 3 tcp 1040 ------- 1 0.0 4.0 11 18
- 0.185456 2 3 tcp 1040 ------- 1 0.0 4.0 9 16
r 0.186139 3 2 ack 40 ------- 1 4.0 0.0 6 13
+ 0.186139 2 0 ack 40 ------- 1 4.0 0.0 6 13
- 0.186139 2 0 ack 40 ------- 1 4.0 0.0 6 13
r 0.186288 0 2 tcp 1040 ------- 1 0.0 4.0 12 19
+ 0.186288 2 3 tcp 1040 ------- 1 0.0 4.0 12 19
r 0.188171 2 0 ack 40 ------- 1 4.0 0.0 6 13
+ 0.188171 0 2 tcp 1040 ------- 1 0.0 4.0 13 20
- 0.188171 0 2 tcp 1040 ------- 1 0.0 4.0 13 20
+ 0.188171 0 2 tcp 1040 ------- 1 0.0 4.0 14 21
- 0.189003 0 2 tcp 1040 ------- 1 0.0 4.0 14 21
r 0.191003 0 2 tcp 1040 ------- 1 0.0 4.0 13 20
+ 0.191003 2 3 tcp 1040 ------- 1 0.0 4.0 13 20
- 0.191003 2 3 tcp 1040 ------- 1 0.0 4.0 10 17
r 0.191835 0 2 tcp 1040 ------- 1 0.0 4.0 14 21
+ 0.191835 2 3 tcp 1040 ------- 1 0.0 4.0 14 21
- 0.196549 2 3 tcp 1040 ------- 1 0.0 4.0 11 18
r 0.199909 2 3 tcp 1040 ------- 1 0.0 4.0 7 14
+ 0.199909 3 4 tcp 1040 ------- 1 0.0 4.0 7 14
- 0.199909 3 4 tcp 1040 ------- 1 0.0 4.0 7 14
- 0.202096 2 3 tcp 1040 ------- 1 0.0 4.0 12 19
r 0.204741 3 4 tcp 1040 ------- 1 0.0 4.0 7 14
+ 0.204741 4 3 ack 40 ------- 1 4.0 0.0 7 22
- 0.204741 4 3 ack 40 ------- 1 4.0 0.0 7 22
r 0.205456 2 3 tcp 1040 ------- 1 0.0 4.0 8 15
+ 0.205456 3 4 tcp 1040 ------- 1 0.0 4.0 8 15
- 0.205456 3 4 tcp 1040 ------- 1 0.0 4.0 8 15
- 0.207643 2 3 tcp 1040 ------- 1 0.0 4.0 13 20
r 0.208773 4 3 ack 40 ------- 1 4.0 0.0 7 22
+ 0.208773 3 2 ack 40 ------- 1 4.0 0.0 7 22
- 0.208773 3 2 ack 40 ------- 1 4.0 0.0 7 22
r 0.210288 3 4 tcp 1040 ------- 1 0.0 4.0 8 15
+ 0.210288 4 3 ack 40 ------- 1 4.0 0.0 8 23
- 0.210288 4 3 ack 40 ------- 1 4.0 0.0 8 23
r 0.211003 2 3 tcp 1040 ------- 1 0.0 4.0 9 16
+ 0.211003 3 4 tcp 1040 ------- 1 0.0 4.0 9 16
- 0.211003 3 4 tcp 1040 ------- 1 0.0 4.0 9 16
- 0.213189 2 3 tcp 1040 ------- 1 0.0 4.0 14 21
r 0.21432 4 3 ack 40 ------- 1 4.0 0.0 8 23
+ 0.21432 3 2 ack 40 ------- 1 4.0 0.0 8 23
- 0.21432 3 2 ack 40 ------- 1 4.0 0.0 8 23
r 0.215835 3 4 tcp 1040 ------- 1 0.0 4.0 9 16
+ 0.215835 4 3 ack 40 ------- 1 4.0 0.0 9 24
- 0.215835 4 3 ack 40 ------- 1 4.0 0.0 9 24
r 0.216549 2 3 tcp 1040 ------- 1 0.0 4.0 10 17
+ 0.216549 3 4 tcp 1040 ------- 1 0.0 4.0 10 17
- 0.216549 3 4 tcp 1040 ------- 1 0.0 4.0 10 17
r 0.219867 4 3 ack 40 ------- 1 4.0 0.0 9 24
+ 0.219867 3 2 ack 40 ------- 1 4.0 0.0 9 24
- 0.219867 3 2 ack 40 ------- 1 4.0 0.0 9 24
r 0.221381 3 4 tcp 1040 ------- 1 0.0 4.0 10 17
+ 0.221381 4 3 ack 40 ------- 1 4.0 0.0 10 25
- 0.221381 4 3 ack 40 ------- 1 4.0 0.0 10 25
r 0.222096 2 3 tcp 1040 ------- 1 0.0 4.0 11 18
+ 0.222096 3 4 tcp 1040 ------- 1 0.0 4.0 11 18
- 0.222096 3 4 tcp 1040 ------- 1 0.0 4.0 11 18
r 0.225413 4 3 ack 40 ------- 1 4.0 0.0 10 25
+ 0.225413 3 2 ack 40 ------- 1 4.0 0.0 10 25
- 0.225413 3 2 ack 40 ------- 1 4.0 0.0 10 25
r 0.226928 3 4 tcp 1040 ------- 1 0.0 4.0 11 18
+ 0.226928 4 3 ack 40 ------- 1 4.0 0.0 11 26
- 0.226928 4 3 ack 40 ------- 1 4.0 0.0 11 26
r 0.227643 2 3 tcp 1040 ------- 1 0.0 4.0 12 19
+ 0.227643 3 4 tcp 1040 ------- 1 0.0 4.0 12 19
- 0.227643 3 4 tcp 1040 ------- 1 0.0 4.0 12 19
r 0.228987 3 2 ack 40 ------- 1 4.0 0.0 7 22
+ 0.228987 2 0 ack 40 ------- 1 4.0 0.0 7 22
- 0.228987 2 0 ack 40 ------- 1 4.0 0.0 7 22
r 0.23096 4 3 ack 40 ------- 1 4.0 0.0 11 26
+ 0.23096 3 2 ack 40 ------- 1 4.0 0.0 11 26
- 0.23096 3 2 ack 40 ------- 1 4.0 0.0 11 26
r 0.231019 2 0 ack 40 ------- 1 4.0 0.0 7 22
+ 0.231019 0 2 tcp 1040 ------- 1 0.0 4.0 15 27
- 0.231019 0 2 tcp 1040 ------- 1 0.0 4.0 15 27
+ 0.231019 0 2 tcp 1040 ------- 1 0.0 4.0 16 28
- 0.231851 0 2 tcp 1040 ------- 1 0.0 4.0 16 28
r 0.232475 3 4 tcp 1040 ------- 1 0.0 4.0 12 19
+ 0.232475 4 3 ack 40 ------- 1 4.0 0.0 12 29
- 0.232475 4 3 ack 40 ------- 1 4.0 0.0 12 29
r 0.233189 2 3 tcp 1040 ------- 1 0.0 4.0 13 20
+ 0.233189 3 4 tcp 1040 ------- 1 0.0 4.0 13 20
- 0.233189 3 4 tcp 1040 ------- 1 0.0 4.0 13 20
r 0.233851 0 2 tcp 1040 ------- 1 0.0 4.0 15 27
+ 0.233851 2 3 tcp 1040 ------- 1 0.0 4.0 15 27
- 0.233851 2 3 tcp 1040 ------- 1 0.0 4.0 15 27
r 0.234533 3 2 ack 40 ------- 1 4.0 0.0 8 23
+ 0.234533 2 0 ack 40 ------- 1 4.0 0.0 8 23
- 0.234533 2 0 ack 40 ------- 1 4.0 0.0 8 23
r 0.234683 0 2 tcp 1040 ------- 1 0.0 4.0 16 28
+ 0.234683 2 3 tcp 1040 ------- 1 0.0 4.0 16 28
r 0.236507 4 3 ack 40 ------- 1 4.0 0.0 12 29
+ 0.236507 3 2 ack 40 ------- 1 4.0 0.0 12 29
- 0.236507 3 2 ack 40 ------- 1 4.0 0.0 12 29
r 0.236565 2 0 ack 40 ------- 1 4.0 0.0 8 23
+ 0.236565 0 2 tcp 1040 ------- 1 0.0 4.0 17 30
- 0.236565 0 2 tcp 1040 ------- 1 0.0 4.0 17 30
+ 0.236565 0 2 tcp 1040 ------- 1 0.0 4.0 18 31
- 0.237397 0 2 tcp 1040 ------- 1 0.0 4.0 18 31
r 0.238021 3 4 tcp 1040 ------- 1 0.0 4.0 13 20
+ 0.238021 4 3 ack 40 ------- 1 4.0 0.0 13 32
- 0.238021 4 3 ack 40 ------- 1 4.0 0.0 13 32
r 0.238736 2 3 tcp 1040 ------- 1 0.0 4.0 14 21
+ 0.238736 3 4 tcp 1040 ------- 1 0.0 4.0 14 21
- 0.238736 3 4 tcp 1040 ------- 1 0.0 4.0 14 21
- 0.239397 2 3 tcp 1040 ------- 1 0.0 4.0 16 28
r 0.239397 0 2 tcp 1040 ------- 1 0.0 4.0 17 30
+ 0.239397 2 3 tcp 1040 ------- 1 0.0 4.0 17 30
r 0.24008 3 2 ack 40 ------- 1 4.0 0.0 9 24
+ 0.24008 2 0 ack 40 ------- 1 4.0 0.0 9 24
- 0.24008 2 0 ack 40 ------- 1 4.0 0.0 9 24
r 0.240229 0 2 tcp 1040 ------- 1 0.0 4.0 18 31
+ 0.240229 2 3 tcp 1040 ------- 1 0.0 4.0 18 31
r 0.242053 4 3 ack 40 ------- 1 4.0 0.0 13 32
+ 0.242053 3 2 ack 40 ------- 1 4.0 0.0 13 32
- 0.242053 3 2 ack 40 ------- 1 4.0 0.0 13 32
r 0.242112 2 0 ack 40 ------- 1 4.0 0.0 9 24
+ 0.242112 0 2 tcp 1040 ------- 1 0.0 4.0 19 33
- 0.242112 0 2 tcp 1040 ------- 1 0.0 4.0 19 33
+ 0.242112 0 2 tcp 1040 ------- 1 0.0 4.0 20 34
- 0.242944 0 2 tcp 1040 ------- 1 0.0 4.0 20 34
r 0.243568 3 4 tcp 1040 ------- 1 0.0 4.0 14 21
+ 0.243568 4 3 ack 40 ------- 1 4.0 0.0 14 35
- 0.243568 4 3 ack 40 ------- 1 4.0 0.0 14 35
- 0.244944 2 3 tcp 1040 ------- 1 0.0 4.0 17 30
r 0.244944 0 2 tcp 1040 ------- 1 0.0 4.0 19 33
+ 0.244944 2 3 tcp 1040 ------- 1 0.0 4.0 19 33
r 0.245627 3 2 ack 40 ------- 1 4.0 0.0 10 25
+ 0.245627 2 0 ack 40 ------- 1 4.0 0.0 10 25
- 0.245627 2 0 ack 40 ------- 1 4.0 0.0 10 25
r 0.245776 0 2 tcp 1040 ------- 1 0.0 4.0 20 34
+ 0.245776 2 3 tcp 1040 ------- 1 0.0 4.0 20 34
r 0.2476 4 3 ack 40 ------- 1 4.0 0.0 14 35
+ 0.2476 3 2 ack 40 ------- 1 4.0 0.0 14 35
- 0.2476 3 2 ack 40 ------- 1 4.0 0.0 14 35
r 0.247659 2 0 ack 40 ------- 1 4.0 0.0 10 25
+ 0.247659 0 2 tcp 1040 ------- 1 0.0 4.0 21 36
- 0.247659 0 2 tcp 1040 ------- 1 0.0 4.0 21 36
+ 0.247659 0 2 tcp 1040 ------- 1 0.0 4.0 22 37
- 0.248491 0 2 tcp 1040 ------- 1 0.0 4.0 22 37
- 0.250491 2 3 tcp 1040 ------- 1 0.0 4.0 18 31
r 0.250491 0 2 tcp 1040 ------- 1 0.0 4.0 21 36
+ 0.250491 2 3 tcp 1040 ------- 1 0.0 4.0 21 36
r 0.251173 3 2 ack 40 ------- 1 4.0 0.0 11 26
+ 0.251173 2 0 ack 40 ------- 1 4.0 0.0 11 26
- 0.251173 2 0 ack 40 ------- 1 4.0 0.0 11 26
r 0.251323 0 2 tcp 1040 ------- 1 0.0 4.0 22 37
+ 0.251323 2 3 tcp 1040 ------- 1 0.0 4.0 22 37
r 0.253205 2 0 ack 40 ------- 1 4.0 0.0 11 26
+ 0.253205 0 2 tcp 1040 ------- 1 0.0 4.0 23 38
- 0.253205 0 2 tcp 1040 ------- 1 0.0 4.0 23 38
+ 0.253205 0 2 tcp 1040 ------- 1 0.0 4.0 24 39
- 0.254037 0 2 tcp 1040 ------- 1 0.0 4.0 24 39
- 0.256037 2 3 tcp 1040 ------- 1 0.0 4.0 19 33
r 0.256037 0 2 tcp 1040 ------- 1 0.0 4.0 23 38
+ 0.256037 2 3 tcp 1040 ------- 1 0.0 4.0 23 38
r 0.25672 3 2 ack 40 ------- 1 4.0 0.0 12 29
+ 0.25672 2 0 ack 40 ------- 1 4.0 0.0 12 29
- 0.25672 2 0 ack 40 ------- 1 4.0 0.0 12 29
r 0.256869 0 2 tcp 1040 ------- 1 0.0 4.0 24 39
+ 0.256869 2 3 tcp 1040 ------- 1 0.0 4.0 24 39
r 0.258752 2 0 ack 40 ------- 1 4.0 0.0 12 29
+ 0.258752 0 2 tcp 1040 ------- 1 0.0 4.0 25 40
- 0.258752 0 2 tcp 1040 ------- 1 0.0 4.0 25 40
+ 0.258752 0 2 tcp 1040 ------- 1 0.0 4.0 26 41
r 0.259397 2 3 tcp 1040 ------- 1 0.0 4.0 15 27
+ 0.259397 3 4 tcp 1040 ------- 1 0.0 4.0 15 27
- 0.259397 3 4 tcp 1040 ------- 1 0.0 4.0 15 27
- 0.259584 0 2 tcp 1040 ------- 1 0.0 4.0 26 41
- 0.261584 2 3 tcp 1040 ------- 1 0.0 4.0 20 34
r 0.261584 0 2 tcp 1040 ------- 1 0.0 4.0 25 40
+ 0.261584 2 3 tcp 1040 ------- 1 0.0 4.0 25 40
r 0.262267 3 2 ack 40 ------- 1 4.0 0.0 13 32
+ 0.262267 2 0 ack 40 ------- 1 4.0 0.0 13 32
- 0.262267 2 0 ack 40 ------- 1 4.0 0.0 13 32
r 0.262416 0 2 tcp 1040 ------- 1 0.0 4.0 26 41
+ 0.262416 2 3 tcp 1040 ------- 1 0.0 4.0 26 41
r 0.264229 3 4 tcp 1040 ------- 1 0.0 4.0 15 27
+ 0.264229 4 3 ack 40 ------- 1 4.0 0.0 15 42
- 0.264229 4 3 ack 40 ------- 1 4.0 0.0 15 42
r 0.264299 2 0 ack 40 ------- 1 4.0 0.0 13 32
+ 0.264299 0 2 tcp 1040 ------- 1 0.0 4.0 27 43
- 0.264299 0 2 tcp 1040 ------- 1 0.0 4.0 27 43
+ 0.264299 0 2 tcp 1040 ------- 1 0.0 4.0 28 44
r 0.264944 2 3 tcp 1040 ------- 1 0.0 4.0 16 28
+ 0.264944 3 4 tcp 1040 ------- 1 0.0 4.0 16 28
- 0.264944 3 4 tcp 1040 ------- 1 0.0 4.0 16 28
- 0.265131 0 2 tcp 1040 ------- 1 0.0 4.0 28 44
- 0.267131 2 3 tcp 1040 ------- 1 0.0 4.0 21 36
r 0.267131 0 2 tcp 1040 ------- 1 0.0 4.0 27 43
+ 0.267131 2 3 tcp 1040 ------- 1 0.0 4.0 27 43
r 0.267813 3 2 ack 40 ------- 1 4.0 0.0 14 35
+ 0.267813 2 0 ack 40 ------- 1 4.0 0.0 14 35
- 0.267813 2 0 ack 40 ------- 1 4.0 0.0 14 35
r 0.267963 0 2 tcp 1040 ------- 1 0.0 4.0 28 44
+ 0.267963 2 3 tcp 1040 ------- 1 0.0 4.0 28 44
r 0.268261 4 3 ack 40 ------- 1 4.0 0.0 15 42
+ 0.268261 3 2 ack 40 ------- 1 4.0 0.0 15 42
- 0.268261 3 2 ack 40 ------- 1 4.0 0.0 15 42
r 0.269776 3 4 tcp 1040 ------- 1 0.0 4.0 16 28
+ 0.269776 4 3 ack 40 ------- 1 4.0 0.0 16 45
- 0.269776 4 3 ack 40 ------- 1 4.0 0.0 16 45
r 0.269845 2 0 ack 40 ------- 1 4.0 0.0 14 35
+ 0.269845 0 2 tcp 1040 ------- 1 0.0 4.0 29 46
- 0.269845 0 2 tcp 1040 ------- 1 0.0 4.0 29 46
+ 0.269845 0 2 tcp 1040 ------- 1 0.0 4.0 30 47
r 0.270491 2 3 tcp 1040 ------- 1 0.0 4.0 17 30
+ 0.270491 3 4 tcp 1040 ------- 1 0.0 4.0 17 30
- 0.270491 3 4 tcp 1040 ------- 1 0.0 4.0 17 30
- 0.270677 0 2 tcp 1040 ------- 1 0.0 4.0 30 47
- 0.272677 2 3 tcp 1040 ------- 1 0.0 4.0 22 37
r 0.272677 0 2 tcp 1040 ------- 1 0.0 4.0 29 46
+ 0.272677 2 3 tcp 1040 ------- 1 0.0 4.0 29 46
r 0.273509 0 2 tcp 1040 ------- 1 0.0 4.0 30 47
+ 0.273509 2 3 tcp 1040 ------- 1 0.0 4.0 30 47
r 0.273808 4 3 ack 40 ------- 1 4.0 0.0 16 45
+ 0.273808 3 2 ack 40 ------- 1 4.0 0.0 16 45
- 0.273808 3 2 ack 40 ------- 1 4.0 0.0 16 45
r 0.275323 3 4 tcp 1040 ------- 1 0.0 4.0 17 30
+ 0.275323 4 3 ack 40 ------- 1 4.0 0.0 17 48
- 0.275323 4 3 ack 40 ------- 1 4.0 0.0 17 48
r 0.276037 2 3 tcp 1040 ------- 1 0.0 4.0 18 31
+ 0.276037 3 4 tcp 1040 ------- 1 0.0 4.0 18 31
- 0.276037 3 4 tcp 1040 ------- 1 0.0 4.0 18 31
- 0.278224 2 3 tcp 1040 ------- 1 0.0 4.0 23 38
r 0.279355 4 3 ack 40 ------- 1 4.0 0.0 17 48
+ 0.279355 3 2 ack 40 ------- 1 4.0 0.0 17 48
- 0.279355 3 2 ack 40 ------- 1 4.0 0.0 17 48
r 0.280869 3 4 tcp 1040 ------- 1 0.0 4.0 18 31
+ 0.280869 4 3 ack 40 ------- 1 4.0 0.0 18 49
- 0.280869 4 3 ack 40 ------- 1 4.0 0.0 18 49
r 0.281584 2 3 tcp 1040 ------- 1 0.0 4.0 19 33
+ 0.281584 3 4 tcp 1040 ------- 1 0.0 4.0 19 33
- 0.281584 3 4 tcp 1040 ------- 1 0.0 4.0 19 33
- 0.283771 2 3 tcp 1040 ------- 1 0.0 4.0 24 39
r 0.284901 4 3 ack 40 ------- 1 4.0 0.0 18 49
+ 0.284901 3 2 ack 40 ------- 1 4.0 0.0 18 49
- 0.284901 3 2 ack 40 ------- 1 4.0 0.0 18 49
r 0.286416 3 4 tcp 1040 ------- 1 0.0 4.0 19 33
+ 0.286416 4 3 ack 40 ------- 1 4.0 0.0 19 50
- 0.286416 4 3 ack 40 ------- 1 4.0 0.0 19 50
r 0.287131 2 3 tcp 1040 ------- 1 0.0 4.0 20 34
+ 0.287131 3 4 tcp 1040 ------- 1 0.0 4.0 20 34
- 0.287131 3 4 tcp 1040 ------- 1 0.0 4.0 20 34
r 0.288475 3 2 ack 40 ------- 1 4.0 0.0 15 42
+ 0.288475 2 0 ack 40 ------- 1 4.0 0.0 15 42
- 0.288475 2 0 ack 40 ------- 1 4.0 0.0 15 42
- 0.289317 2 3 tcp 1040 ------- 1 0.0 4.0 25 40
r 0.290448 4 3 ack 40 ------- 1 4.0 0.0 19 50
+ 0.290448 3 2 ack 40 ------- 1 4.0 0.0 19 50
- 0.290448 3 2 ack 40 ------- 1 4.0 0.0 19 50
r 0.290507 2 0 ack 40 ------- 1 4.0 0.0 15 42
+ 0.290507 0 2 tcp 1040 ------- 1 0.0 4.0 31 51
- 0.290507 0 2 tcp 1040 ------- 1 0.0 4.0 31 51
+ 0.290507 0 2 tcp 1040 ------- 1 0.0 4.0 32 52
- 0.291339 0 2 tcp 1040 ------- 1 0.0 4.0 32 52
r 0.291963 3 4 tcp 1040 ------- 1 0.0 4.0 20 34
+ 0.291963 4 3 ack 40 ------- 1 4.0 0.0 20 53
- 0.291963 4 3 ack 40 ------- 1 4.0 0.0 20 53
r 0.292677 2 3 tcp 1040 ------- 1 0.0 4.0 21 36
+ 0.292677 3 4 tcp 1040 ------- 1 0.0 4.0 21 36
- 0.292677 3 4 tcp 1040 ------- 1 0.0 4.0 21 36
r 0.293339 0 2 tcp 1040 ------- 1 0.0 4.0 31 51
+ 0.293339 2 3 tcp 1040 ------- 1 0.0 4.0 31 51
r 0.294021 3 2 ack 40 ------- 1 4.0 0.0 16 45
+ 0.294021 2 0 ack 40 ------- 1 4.0 0.0 16 45
- 0.294021 2 0 ack 40 ------- 1 4.0 0.0 16 45
r 0.294171 0 2 tcp 1040 ------- 1 0.0 4.0 32 52
+ 0.294171 2 3 tcp 1040 ------- 1 0.0 4.0 32 52
- 0.294864 2 3 tcp 1040 ------- 1 0.0 4.0 26 41
r 0.295995 4 3 ack 40 ------- 1 4.0 0.0 20 53
+ 0.295995 3 2 ack 40 ------- 1 4.0 0.0 20 53
- 0.295995 3 2 ack 40 ------- 1 4.0 0.0 20 53
r 0.296053 2 0 ack 40 ------- 1 4.0 0.0 16 45
+ 0.296053 0 2 tcp 1040 ------- 1 0.0 4.0 33 54
- 0.296053 0 2 tcp 1040 ------- 1 0.0 4.0 33 54
+ 0.296053 0 2 tcp 1040 ------- 1 0.0 4.0 34 55
- 0.296885 0 2 tcp 1040 ------- 1 0.0 4.0 34 55
r 0.297509 3 4 tcp 1040 ------- 1 0.0 4.0 21 36
+ 0.297509 4 3 ack 40 ------- 1 4.0 0.0 21 56
- 0.297509 4 3 ack 40 ------- 1 4.0 0.0 21 56
r 0.298224 2 3 tcp 1040 ------- 1 0.0 4.0 22 37
+ 0.298224 3 4 tcp 1040 ------- 1 0.0 4.0 22 37
- 0.298224 3 4 tcp 1040 ------- 1 0.0 4.0 22 37
r 0.298885 0 2 tcp 1040 ------- 1 0.0 4.0 33 54
+ 0.298885 2 3 tcp 1040 ------- 1 0.0 4.0 33 54
r 0.299568 3 2 ack 40 ------- 1 4.0 0.0 17 48
+ 0.299568 2 0 ack 40 ------- 1 4.0 0.0 17 48
- 0.299568 2 0 ack 40 ------- 1 4.0 0.0 17 48
r 0.299717 0 2 tcp 1040 ------- 1 0.0 4.0 34 55
+ 0.299717 2 3 tcp 1040 ------- 1 0.0 4.0 34 55
- 0.300411 2 3 tcp 1040 ------- 1 0.0 4.0 27 43
r 0.301541 4 3 ack 40 ------- 1 4.0 0.0 21 56
+ 0.301541 3 2 ack 40 ------- 1 4.0 0.0 21 56
- 0.301541 3 2 ack 40 ------- 1 4.0 0.0 21 56
r 0.3016 2 0 ack 40 ------- 1 4.0 0.0 17 48
+ 0.3016 0 2 tcp 1040 ------- 1 0.0 4.0 35 57
- 0.3016 0 2 tcp 1040 ------- 1 0.0 4.0 35 57
+ 0.3016 0 2 tcp 1040 ------- 1 0.0 4.0 36 58
- 0.302432 0 2 tcp 1040 ------- 1 0.0 4.0 36 58
r 0.303056 3 4 tcp 1040 ------- 1 0.0 4.0 22 37
+ 0.303056 4 3 ack 40 ------- 1 4.0 0.0 22 59
- 0.303056 4 3 ack 40 ------- 1 4.0 0.0 22 59
r 0.303771 2 3 tcp 1040 ------- 1 0.0 4.0 23 38
+ 0.303771 3 4 tcp 1040 ------- 1 0.0 4.0 23 38
- 0.303771 3 4 tcp 1040 ------- 1 0.0 4.0 23 38
r 0.304432 0 2 tcp 1040 ------- 1 0.0 4.0 35 57
+ 0.304432 2 3 tcp 1040 ------- 1 0.0 4.0 35 57
r 0.305115 3 2 ack 40 ------- 1 4.0 0.0 18 49
+ 0.305115 2 0 ack 40 ------- 1 4.0 0.0 18 49
- 0.305115 2 0 ack 40 ------- 1 4.0 0.0 18 49
r 0.305264 0 2 tcp 1040 ------- 1 0.0 4.0 36 58
+ 0.305264 2 3 tcp 1040 ------- 1 0.0 4.0 36 58
- 0.305957 2 3 tcp 1040 ------- 1 0.0 4.0 28 44
r 0.307088 4 3 ack 40 ------- 1 4.0 0.0 22 59
+ 0.307088 3 2 ack 40 ------- 1 4.0 0.0 22 59
- 0.307088 3 2 ack 40 ------- 1 4.0 0.0 22 59
r 0.307147 2 0 ack 40 ------- 1 4.0 0.0 18 49
+ 0.307147 0 2 tcp 1040 ------- 1 0.0 4.0 37 60
- 0.307147 0 2 tcp 1040 ------- 1 0.0 4.0 37 60
+ 0.307147 0 2 tcp 1040 ------- 1 0.0 4.0 38 61
- 0.307979 0 2 tcp 1040 ------- 1 0.0 4.0 38 61
r 0.308603 3 4 tcp 1040 ------- 1 0.0 4.0 23 38
+ 0.308603 4 3 ack 40 ------- 1 4.0 0.0 23 62
- 0.308603 4 3 ack 40 ------- 1 4.0 0.0 23 62
r 0.309317 2 3 tcp 1040 ------- 1 0.0 4.0 24 39
+ 0.309317 3 4 tcp 1040 ------- 1 0.0 4.0 24 39
- 0.309317 3 4 tcp 1040 ------- 1 0.0 4.0 24 39
r 0.309979 0 2 tcp 1040 ------- 1 0.0 4.0 37 60
+ 0.309979 2 3 tcp 1040 ------- 1 0.0 4.0 37 60
r 0.310661 3 2 ack 40 ------- 1 4.0 0.0 19 50
+ 0.310661 2 0 ack 40 ------- 1 4.0 0.0 19 50
- 0.310661 2 0 ack 40 ------- 1 4.0 0.0 19 50
r 0.310811 0 2 tcp 1040 ------- 1 0.0 4.0 38 61
+ 0.310811 2 3 tcp 1040 ------- 1 0.0 4.0 38 61
- 0.311504 2 3 tcp 1040 ------- 1 0.0 4.0 29 46
r 0.312635 4 3 ack 40 ------- 1 4.0 0.0 23 62
+ 0.312635 3 2 ack 40 ------- 1 4.0 0.0 23 62
- 0.312635 3 2 ack 40 ------- 1 4.0 0.0 23 62
r 0.312693 2 0 ack 40 ------- 1 4.0 0.0 19 50
+ 0.312693 0 2 tcp 1040 ------- 1 0.0 4.0 39 63
- 0.312693 0 2 tcp 1040 ------- 1 0.0 4.0 39 63
+ 0.312693 0 2 tcp 1040 ------- 1 0.0 4.0 40 64
- 0.313525 0 2 tcp 1040 ------- 1 0.0 4.0 40 64
r 0.314149 3 4 tcp 1040 ------- 1 0.0 4.0 24 39
+ 0.314149 4 3 ack 40 ------- 1 4.0 0.0 24 65
- 0.314149 4 3 ack 40 ------- 1 4.0 0.0 24 65
r 0.314864 2 3 tcp 1040 ------- 1 0.0 4.0 25 40
+ 0.314864 3 4 tcp 1040 ------- 1 0.0 4.0 25 40
- 0.314864 3 4 tcp 1040 ------- 1 0.0 4.0 25 40
r 0.315525 0 2 tcp 1040 ------- 1 0.0 4.0 39 63
+ 0.315525 2 3 tcp 1040 ------- 1 0.0 4.0 39 63
r 0.316208 3 2 ack 40 ------- 1 4.0 0.0 20 53
+ 0.316208 2 0 ack 40 ------- 1 4.0 0.0 20 53
- 0.316208 2 0 ack 40 ------- 1 4.0 0.0 20 53
r 0.316357 0 2 tcp 1040 ------- 1 0.0 4.0 40 64
+ 0.316357 2 3 tcp 1040 ------- 1 0.0 4.0 40 64
- 0.317051 2 3 tcp 1040 ------- 1 0.0 4.0 30 47
r 0.318181 4 3 ack 40 ------- 1 4.0 0.0 24 65
+ 0.318181 3 2 ack 40 ------- 1 4.0 0.0 24 65
- 0.318181 3 2 ack 40 ------- 1 4.0 0.0 24 65
r 0.31824 2 0 ack 40 ------- 1 4.0 0.0 20 53
+ 0.31824 0 2 tcp 1040 ------- 1 0.0 4.0 41 66
- 0.31824 0 2 tcp 1040 ------- 1 0.0 4.0 41 66
+ 0.31824 0 2 tcp 1040 ------- 1 0.0 4.0 42 67
- 0.319072 0 2 tcp 1040 ------- 1 0.0 4.0 42 67
r 0.319696 3 4 tcp 1040 ------- 1 0.0 4.0 25 40
+ 0.319696 4 3 ack 40 ------- 1 4.0 0.0 25 68
- 0.319696 4 3 ack 40 ------- 1 4.0 0.0 25 68
r 0.320411 2 3 tcp 1040 ------- 1 0.0 4.0 26 41
+ 0.320411 3 4 tcp 1040 ------- 1 0.0 4.0 26 41
- 0.320411 3 4 tcp 1040 ------- 1 0.0 4.0 26 41
r 0.321072 0 2 tcp 1040 ------- 1 0.0 4.0 41 66
+ 0.321072 2 3 tcp 1040 ------- 1 0.0 4.0 41 66
r 0.321755 3 2 ack 40 ------- 1 4.0 0.0 21 56
+ 0.321755 2 0 ack 40 ------- 1 4.0 0.0 21 56
- 0.321755 2 0 ack 40 ------- 1 4.0 0.0 21 56
r 0.321904 0 2 tcp 1040 ------- 1 0.0 4.0 42 67
+ 0.321904 2 3 tcp 1040 ------- 1 0.0 4.0 42 67
- 0.322597 2 3 tcp 1040 ------- 1 0.0 4.0 31 51
r 0.323728 4 3 ack 40 ------- 1 4.0 0.0 25 68
+ 0.323728 3 2 ack 40 ------- 1 4.0 0.0 25 68
- 0.323728 3 2 ack 40 ------- 1 4.0 0.0 25 68
r 0.323787 2 0 ack 40 ------- 1 4.0 0.0 21 56
+ 0.323787 0 2 tcp 1040 ------- 1 0.0 4.0 43 69
- 0.323787 0 2 tcp 1040 ------- 1 0.0 4.0 43 69
+ 0.323787 0 2 tcp 1040 ------- 1 0.0 4.0 44 70
- 0.324619 0 2 tcp 1040 ------- 1 0.0 4.0 44 70
r 0.325243 3 4 tcp 1040 ------- 1 0.0 4.0 26 41
+ 0.325243 4 3 ack 40 ------- 1 4.0 0.0 26 71
- 0.325243 4 3 ack 40 ------- 1 4.0 0.0 26 71
r 0.325957 2 3 tcp 1040 ------- 1 0.0 4.0 27 43
+ 0.325957 3 4 tcp 1040 ------- 1 0.0 4.0 27 43
- 0.325957 3 4 tcp 1040 ------- 1 0.0 4.0 27 43
r 0.326619 0 2 tcp 1040 ------- 1 0.0 4.0 43 69
+ 0.326619 2 3 tcp 1040 ------- 1 0.0 4.0 43 69
r 0.327301 3 2 ack 40 ------- 1 4.0 0.0 22 59
+ 0.327301 2 0 ack 40 ------- 1 4.0 0.0 22 59
- 0.327301 2 0 ack 40 ------- 1 4.0 0.0 22 59
r 0.327451 0 2 tcp 1040 ------- 1 0.0 4.0 44 70
+ 0.327451 2 3 tcp 1040 ------- 1 0.0 4.0 44 70
- 0.328144 2 3 tcp 1040 ------- 1 0.0 4.0 32 52
r 0.329275 4 3 ack 40 ------- 1 4.0 0.0 26 71
+ 0.329275 3 2 ack 40 ------- 1 4.0 0.0 26 71
- 0.329275 3 2 ack 40 ------- 1 4.0 0.0 26 71
r 0.329333 2 0 ack 40 ------- 1 4.0 0.0 22 59
+ 0.329333 0 2 tcp 1040 ------- 1 0.0 4.0 45 72
- 0.329333 0 2 tcp 1040 ------- 1 0.0 4.0 45 72
+ 0.329333 0 2 tcp 1040 ------- 1 0.0 4.0 46 73
- 0.330165 0 2 tcp 1040 ------- 1 0.0 4.0 46 73
r 0.330789 3 4 tcp 1040 ------- 1 0.0 4.0 27 43
+ 0.330789 4 3 ack 40 ------- 1 4.0 0.0 27 74
- 0.330789 4 3 ack 40 ------- 1 4.0 0.0 27 74
r 0.331504 2 3 tcp 1040 ------- 1 0.0 4.0 28 44
+ 0.331504 3 4 tcp 1040 ------- 1 0.0 4.0 28 44
- 0.331504 3 4 tcp 1040 ------- 1 0.0 4.0 28 44
r 0.332165 0 2 tcp 1040 ------- 1 0.0 4.0 45 72
+ 0.332165 2 3 tcp 1040 ------- 1 0.0 4.0 45 72
r 0.332848 3 2 ack 40 ------- 1 4.0 0.0 23 62
+ 0.332848 2 0 ack 40 ------- 1 4.0 0.0 23 62
- 0.332848 2 0 ack 40 ------- 1 4.0 0.0 23 62
r 0.332997 0 2 tcp 1040 ------- 1 0.0 4.0 46 73
+ 0.332997 2 3 tcp 1040 ------- 1 0.0 4.0 46 73
d 0.332997 2 3 tcp 1040 ------- 1 0.0 4.0 46 73
- 0.333691 2 3 tcp 1040 ------- 1 0.0 4.0 33 54
r 0.334821 4 3 ack 40 ------- 1 4.0 0.0 27 74
+ 0.334821 3 2 ack 40 ------- 1 4.0 0.0 27 74
- 0.334821 3 2 ack 40 ------- 1 4.0 0.0 27 74
r 0.33488 2 0 ack 40 ------- 1 4.0 0.0 23 62
+ 0.33488 0 2 tcp 1040 ------- 1 0.0 4.0 47 75
- 0.33488 0 2 tcp 1040 ------- 1 0.0 4.0 47 75
+ 0.33488 0 2 tcp 1040 ------- 1 0.0 4.0 48 76
- 0.335712 0 2 tcp 1040 ------- 1 0.0 4.0 48 76
r 0.336336 3 4 tcp 1040 ------- 1 0.0 4.0 28 44
+ 0.336336 4 3 ack 40 ------- 1 4.0 0.0 28 77
- 0.336336 4 3 ack 40 ------- 1 4.0 0.0 28 77
r 0.337051 2 3 tcp 1040 ------- 1 0.0 4.0 29 46
+ 0.337051 3 4 tcp 1040 ------- 1 0.0 4.0 29 46
- 0.337051 3 4 tcp 1040 ------- 1 0.0 4.0 29 46
r 0.337712 0 2 tcp 1040 ------- 1 0.0 4.0 47 75
+ 0.337712 2 3 tcp 1040 ------- 1 0.0 4.0 47 75
r 0.338395 3 2 ack 40 ------- 1 4.0 0.0 24 65
+ 0.338395 2 0 ack 40 ------- 1 4.0 0.0 24 65
- 0.338395 2 0 ack 40 ------- 1 4.0 0.0 24 65
r 0.338544 0 2 tcp 1040 ------- 1 0.0 4.0 48 76
+ 0.338544 2 3 tcp 1040 ------- 1 0.0 4.0 48 76
d 0.338544 2 3 tcp 1040 ------- 1 0.0 4.0 48 76
- 0.339237 2 3 tcp 1040 ------- 1 0.0 4.0 34 55
r 0.340368 4 3 ack 40 ------- 1 4.0 0.0 28 77
+ 0.340368 3 2 ack 40 ------- 1 4.0 0.0 28 77
- 0.340368 3 2 ack 40 ------- 1 4.0 0.0 28 77
r 0.340427 2 0 ack 40 ------- 1 4.0 0.0 24 65
+ 0.340427 0 2 tcp 1040 ------- 1 0.0 4.0 49 78
- 0.340427 0 2 tcp 1040 ------- 1 0.0 4.0 49 78
+ 0.340427 0 2 tcp 1040 ------- 1 0.0 4.0 50 79
- 0.341259 0 2 tcp 1040 ------- 1 0.0 4.0 50 79
r 0.341883 3 4 tcp 1040 ------- 1 0.0 4.0 29 46
+ 0.341883 4 3 ack 40 ------- 1 4.0 0.0 29 80
- 0.341883 4 3 ack 40 ------- 1 4.0 0.0 29 80
r 0.342597 2 3 tcp 1040 ------- 1 0.0 4.0 30 47
+ 0.342597 3 4 tcp 1040 ------- 1 0.0 4.0 30 47
- 0.342597 3 4 tcp 1040 ------- 1 0.0 4.0 30 47
r 0.343259 0 2 tcp 1040 ------- 1 0.0 4.0 49 78
+ 0.343259 2 3 tcp 1040 ------- 1 0.0 4.0 49 78
r 0.343941 3 2 ack 40 ------- 1 4.0 0.0 25 68
+ 0.343941 2 0 ack 40 ------- 1 4.0 0.0 25 68
- 0.343941 2 0 ack 40 ------- 1 4.0 0.0 25 68
r 0.344091 0 2 tcp 1040 ------- 1 0.0 4.0 50 79
+ 0.344091 2 3 tcp 1040 ------- 1 0.0 4.0 50 79
d 0.344091 2 3 tcp 1040 ------- 1 0.0 4.0 50 79
- 0.344784 2 3 tcp 1040 ------- 1 0.0 4.0 35 57
r 0.345915 4 3 ack 40 ------- 1 4.0 0.0 29 80
+ 0.345915 3 2 ack 40 ------- 1 4.0 0.0 29 80
- 0.345915 3 2 ack 40 ------- 1 4.0 0.0 29 80
r 0.345973 2 0 ack 40 ------- 1 4.0 0.0 25 68
+ 0.345973 0 2 tcp 1040 ------- 1 0.0 4.0 51 81
- 0.345973 0 2 tcp 1040 ------- 1 0.0 4.0 51 81
+ 0.345973 0 2 tcp 1040 ------- 1 0.0 4.0 52 82
- 0.346805 0 2 tcp 1040 ------- 1 0.0 4.0 52 82
r 0.347429 3 4 tcp 1040 ------- 1 0.0 4.0 30 47
+ 0.347429 4 3 ack 40 ------- 1 4.0 0.0 30 83
- 0.347429 4 3 ack 40 ------- 1 4.0 0.0 30 83
r 0.348144 2 3 tcp 1040 ------- 1 0.0 4.0 31 51
+ 0.348144 3 4 tcp 1040 ------- 1 0.0 4.0 31 51
- 0.348144 3 4 tcp 1040 ------- 1 0.0 4.0 31 51
r 0.348805 0 2 tcp 1040 ------- 1 0.0 4.0 51 81
+ 0.348805 2 3 tcp 1040 ------- 1 0.0 4.0 51 81
r 0.349488 3 2 ack 40 ------- 1 4.0 0.0 26 71
+ 0.349488 2 0 ack 40 ------- 1 4.0 0.0 26 71
- 0.349488 2 0 ack 40 ------- 1 4.0 0.0 26 71
r 0.349637 0 2 tcp 1040 ------- 1 0.0 4.0 52 82
+ 0.349637 2 3 tcp 1040 ------- 1 0.0 4.0 52 82
d 0.349637 2 3 tcp 1040 ------- 1 0.0 4.0 52 82
- 0.350331 2 3 tcp 1040 ------- 1 0.0 4.0 36 58
r 0.351461 4 3 ack 40 ------- 1 4.0 0.0 30 83
+ 0.351461 3 2 ack 40 ------- 1 4.0 0.0 30 83
- 0.351461 3 2 ack 40 ------- 1 4.0 0.0 30 83
r 0.35152 2 0 ack 40 ------- 1 4.0 0.0 26 71