+ 0.1 0 1 tcp 40 ------- 1 0.0 2.0 0 0
- 0.1 0 1 tcp 40 ------- 1 0.0 2.0 0 0
r 0.11032 0 1 tcp 40 ------- 1 0.0 2.0 0 0
+ 0.11032 1 2 tcp 40 ------- 1 0.0 2.0 0 0
- 0.11032 1 2 tcp 40 ------- 1 0.0 2.0 0 0
r 0.12672 1 2 tcp 40 ------- 1 0.0 2.0 0 0
+ 0.12672 2 1 ack 40 ------- 1 2.0 0.0 0 1
- 0.12672 2 1 ack 40 ------- 1 2.0 0.0 0 1
r 0.14312 2 1 ack 40 ------- 1 2.0 0.0 0 1
+ 0.14312 1 0 ack 40 ------- 1 2.0 0.0 0 1
- 0.14312 1 0 ack 40 ------- 1 2.0 0.0 0 1
r 0.15344 1 0 ack 40 ------- 1 2.0 0.0 0 1
+ 0.15344 0 1 tcp 1000 ------- 1 0.0 2.0 1 2
- 0.15344 0 1 tcp 1000 ------- 1 0.0 2.0 1 2
+ 0.15344 0 1 tcp 1000 ------- 1 0.0 2.0 2 3
- 0.16144 0 1 tcp 1000 ------- 1 0.0 2.0 2 3
r 0.17144 0 1 tcp 1000 ------- 1 0.0 2.0 1 2
+ 0.17144 1 2 tcp 1000 ------- 1 0.0 2.0 1 2
- 0.17144 1 2 tcp 1000 ------- 1 0.0 2.0 1 2
r 0.17944 0 1 tcp 1000 ------- 1 0.0 2.0 2 3
+ 0.17944 1 2 tcp 1000 ------- 1 0.0 2.0 2 3
- 0.33144 1 2 tcp 1000 ------- 1 0.0 2.0 2 3
r 0.34144 1 2 tcp 1000 ------- 1 0.0 2.0 1 2
+ 0.34144 2 1 ack 40 ------- 1 2.0 0.0 1 4
- 0.34144 2 1 ack 40 ------- 1 2.0 0.0 1 4
+ 0.35344 0 1 tcp 1000 ---A--- 1 0.0 2.0 1 5
- 0.35344 0 1 tcp 1000 ---A--- 1 0.0 2.0 1 5
r 0.35784 2 1 ack 40 ------- 1 2.0 0.0 1 4
+ 0.35784 1 0 ack 40 ------- 1 2.0 0.0 1 4
- 0.35784 1 0 ack 40 ------- 1 2.0 0.0 1 4
r 0.36816 1 0 ack 40 ------- 1 2.0 0.0 1 4
+ 0.36816 0 1 tcp 1000 ------- 1 0.0 2.0 2 6
- 0.36816 0 1 tcp 1000 ------- 1 0.0 2.0 2 6
+ 0.36816 0 1 tcp 1000 ------- 1 0.0 2.0 3 7
r 0.37144 0 1 tcp 1000 ---A--- 1 0.0 2.0 1 5
+ 0.37144 1 2 tcp 1000 ---A--- 1 0.0 2.0 1 5
- 0.37616 0 1 tcp 1000 ------- 1 0.0 2.0 3 7
r 0.38616 0 1 tcp 1000 ------- 1 0.0 2.0 2 6
+ 0.38616 1 2 tcp 1000 ------- 1 0.0 2.0 2 6
r 0.39416 0 1 tcp 1000 ------- 1 0.0 2.0 3 7
+ 0.39416 1 2 tcp 1000 ------- 1 0.0 2.0 3 7
- 0.49144 1 2 tcp 1000 ---A--- 1 0.0 2.0 1 5
r 0.50144 1 2 tcp 1000 ------- 1 0.0 2.0 2 3
+ 0.50144 2 1 ack 40 ------- 1 2.0 0.0 2 8
- 0.50144 2 1 ack 40 ------- 1 2.0 0.0 2 8
r 0.51784 2 1 ack 40 ------- 1 2.0 0.0 2 8
+ 0.51784 1 0 ack 40 ------- 1 2.0 0.0 2 8
- 0.51784 1 0 ack 40 ------- 1 2.0 0.0 2 8
r 0.52816 1 0 ack 40 ------- 1 2.0 0.0 2 8
+ 0.52816 0 1 tcp 1000 ------- 1 0.0 2.0 4 9
- 0.52816 0 1 tcp 1000 ------- 1 0.0 2.0 4 9
r 0.54616 0 1 tcp 1000 ------- 1 0.0 2.0 4 9
+ 0.54616 1 2 tcp 1000 ------- 1 0.0 2.0 4 9
- 0.65144 1 2 tcp 1000 ------- 1 0.0 2.0 2 6
r 0.66144 1 2 tcp 1000 ---A--- 1 0.0 2.0 1 5
+ 0.66144 2 1 ack 40 ------- 1 2.0 0.0 2 10
- 0.66144 2 1 ack 40 ------- 1 2.0 0.0 2 10
r 0.67784 2 1 ack 40 ------- 1 2.0 0.0 2 10
+ 0.67784 1 0 ack 40 ------- 1 2.0 0.0 2 10
- 0.67784 1 0 ack 40 ------- 1 2.0 0.0 2 10
r 0.68816 1 0 ack 40 ------- 1 2.0 0.0 2 10
- 0.81144 1 2 tcp 1000 ------- 1 0.0 2.0 3 7
r 0.82144 1 2 tcp 1000 ------- 1 0.0 2.0 2 6
+ 0.82144 2 1 ack 40 ------- 1 2.0 0.0 2 11
- 0.82144 2 1 ack 40 ------- 1 2.0 0.0 2 11
r 0.83784 2 1 ack 40 ------- 1 2.0 0.0 2 11
+ 0.83784 1 0 ack 40 ------- 1 2.0 0.0 2 11
- 0.83784 1 0 ack 40 ------- 1 2.0 0.0 2 11
r 0.84816 1 0 ack 40 ------- 1 2.0 0.0 2 11
+ 0.92816 0 1 tcp 1000 ---A--- 1 0.0 2.0 3 12
- 0.92816 0 1 tcp 1000 ---A--- 1 0.0 2.0 3 12
r 0.94616 0 1 tcp 1000 ---A--- 1 0.0 2.0 3 12
+ 0.94616 1 2 tcp 1000 ---A--- 1 0.0 2.0 3 12
- 0.97144 1 2 tcp 1000 ------- 1 0.0 2.0 4 9
r 0.98144 1 2 tcp 1000 ------- 1 0.0 2.0 3 7
+ 0.98144 2 1 ack 40 ------- 1 2.0 0.0 3 13
- 0.98144 2 1 ack 40 ------- 1 2.0 0.0 3 13
r 0.99784 2 1 ack 40 ------- 1 2.0 0.0 3 13
+ 0.99784 1 0 ack 40 ------- 1 2.0 0.0 3 13
- 0.99784 1 0 ack 40 ------- 1 2.0 0.0 3 13
r 1.00816 1 0 ack 40 ------- 1 2.0 0.0 3 13
+ 1.00816 0 1 tcp 1000 ------- 1 0.0 2.0 4 14
- 1.00816 0 1 tcp 1000 ------- 1 0.0 2.0 4 14
+ 1.00816 0 1 tcp 1000 ------- 1 0.0 2.0 5 15
- 1.01616 0 1 tcp 1000 ------- 1 0.0 2.0 5 15
r 1.02616 0 1 tcp 1000 ------- 1 0.0 2.0 4 14
+ 1.02616 1 2 tcp 1000 ------- 1 0.0 2.0 4 14
r 1.03416 0 1 tcp 1000 ------- 1 0.0 2.0 5 15
+ 1.03416 1 2 tcp 1000 ------- 1 0.0 2.0 5 15
- 1.13144 1 2 tcp 1000 ---A--- 1 0.0 2.0 3 12
r 1.14144 1 2 tcp 1000 ------- 1 0.0 2.0 4 9
+ 1.14144 2 1 ack 40 ------- 1 2.0 0.0 4 16
- 1.14144 2 1 ack 40 ------- 1 2.0 0.0 4 16
r 1.15784 2 1 ack 40 ------- 1 2.0 0.0 4 16
+ 1.15784 1 0 ack 40 ------- 1 2.0 0.0 4 16
- 1.15784 1 0 ack 40 ------- 1 2.0 0.0 4 16
r 1.16816 1 0 ack 40 ------- 1 2.0 0.0 4 16
+ 1.16816 0 1 tcp 1000 ------- 1 0.0 2.0 6 17
- 1.16816 0 1 tcp 1000 ------- 1 0.0 2.0 6 17
r 1.18616 0 1 tcp 1000 ------- 1 0.0 2.0 6 17
+ 1.18616 1 2 tcp 1000 ------- 1 0.0 2.0 6 17
- 1.29144 1 2 tcp 1000 ------- 1 0.0 2.0 4 14
r 1.30144 1 2 tcp 1000 ---A--- 1 0.0 2.0 3 12
+ 1.30144 2 1 ack 40 ------- 1 2.0 0.0 4 18
- 1.30144 2 1 ack 40 ------- 1 2.0 0.0 4 18
r 1.31784 2 1 ack 40 ------- 1 2.0 0.0 4 18
+ 1.31784 1 0 ack 40 ------- 1 2.0 0.0 4 18
- 1.31784 1 0 ack 40 ------- 1 2.0 0.0 4 18
r 1.32816 1 0 ack 40 ------- 1 2.0 0.0 4 18
- 1.45144 1 2 tcp 1000 ------- 1 0.0 2.0 5 15
r 1.46144 1 2 tcp 1000 ------- 1 0.0 2.0 4 14
+ 1.46144 2 1 ack 40 ------- 1 2.0 0.0 4 19
- 1.46144 2 1 ack 40 ------- 1 2.0 0.0 4 19
r 1.47784 2 1 ack 40 ------- 1 2.0 0.0 4 19
+ 1.47784 1 0 ack 40 ------- 1 2.0 0.0 4 19
- 1.47784 1 0 ack 40 ------- 1 2.0 0.0 4 19
r 1.48816 1 0 ack 40 ------- 1 2.0 0.0 4 19
- 1.61144 1 2 tcp 1000 ------- 1 0.0 2.0 6 17
r 1.62144 1 2 tcp 1000 ------- 1 0.0 2.0 5 15
+ 1.62144 2 1 ack 40 ------- 1 2.0 0.0 5 20
- 1.62144 2 1 ack 40 ------- 1 2.0 0.0 5 20
r 1.63784 2 1 ack 40 ------- 1 2.0 0.0 5 20
+ 1.63784 1 0 ack 40 ------- 1 2.0 0.0 5 20
- 1.63784 1 0 ack 40 ------- 1 2.0 0.0 5 20
r 1.64816 1 0 ack 40 ------- 1 2.0 0.0 5 20
+ 1.64816 0 1 tcp 1000 ------- 1 0.0 2.0 7 21
- 1.64816 0 1 tcp 1000 ------- 1 0.0 2.0 7 21
r 1.66616 0 1 tcp 1000 ------- 1 0.0 2.0 7 21
+ 1.66616 1 2 tcp 1000 ------- 1 0.0 2.0 7 21
- 1.77144 1 2 tcp 1000 ------- 1 0.0 2.0 7 21
r 1.78144 1 2 tcp 1000 ------- 1 0.0 2.0 6 17
+ 1.78144 2 1 ack 40 ------- 1 2.0 0.0 6 22
- 1.78144 2 1 ack 40 ------- 1 2.0 0.0 6 22
r 1.79784 2 1 ack 40 ------- 1 2.0 0.0 6 22
+ 1.79784 1 0 ack 40 ------- 1 2.0 0.0 6 22
- 1.79784 1 0 ack 40 ------- 1 2.0 0.0 6 22
r 1.80816 1 0 ack 40 ------- 1 2.0 0.0 6 22
+ 1.80816 0 1 tcp 1000 ------- 1 0.0 2.0 8 23
- 1.80816 0 1 tcp 1000 ------- 1 0.0 2.0 8 23
+ 1.80816 0 1 tcp 1000 ------- 1 0.0 2.0 9 24
- 1.81616 0 1 tcp 1000 ------- 1 0.0 2.0 9 24
r 1.82616 0 1 tcp 1000 ------- 1 0.0 2.0 8 23
+ 1.82616 1 2 tcp 1000 ------- 1 0.0 2.0 8 23
r 1.83416 0 1 tcp 1000 ------- 1 0.0 2.0 9 24
+ 1.83416 1 2 tcp 1000 ------- 1 0.0 2.0 9 24
- 1.93144 1 2 tcp 1000 ------- 1 0.0 2.0 8 23
r 1.94144 1 2 tcp 1000 ------- 1 0.0 2.0 7 21
+ 1.94144 2 1 ack 40 ------- 1 2.0 0.0 7 25
- 1.94144 2 1 ack 40 ------- 1 2.0 0.0 7 25
r 1.95784 2 1 ack 40 ------- 1 2.0 0.0 7 25
+ 1.95784 1 0 ack 40 ------- 1 2.0 0.0 7 25
- 1.95784 1 0 ack 40 ------- 1 2.0 0.0 7 25
r 1.96816 1 0 ack 40 ------- 1 2.0 0.0 7 25
+ 1.96816 0 1 tcp 1000 ------- 1 0.0 2.0 10 26
- 1.96816 0 1 tcp 1000 ------- 1 0.0 2.0 10 26
r 1.98616 0 1 tcp 1000 ------- 1 0.0 2.0 10 26
+ 1.98616 1 2 tcp 1000 ------- 1 0.0 2.0 10 26
- 2.09144 1 2 tcp 1000 ------- 1 0.0 2.0 9 24
r 2.10144 1 2 tcp 1000 ------- 1 0.0 2.0 8 23
+ 2.10144 2 1 ack 40 ------- 1 2.0 0.0 8 27
- 2.10144 2 1 ack 40 ------- 1 2.0 0.0 8 27
r 2.11784 2 1 ack 40 ------- 1 2.0 0.0 8 27
+ 2.11784 1 0 ack 40 ------- 1 2.0 0.0 8 27
- 2.11784 1 0 ack 40 ------- 1 2.0 0.0 8 27
r 2.12816 1 0 ack 40 ------- 1 2.0 0.0 8 27
+ 2.12816 0 1 tcp 1000 ------- 1 0.0 2.0 11 28
- 2.12816 0 1 tcp 1000 ------- 1 0.0 2.0 11 28
r 2.14616 0 1 tcp 1000 ------- 1 0.0 2.0 11 28
+ 2.14616 1 2 tcp 1000 ------- 1 0.0 2.0 11 28
- 2.25144 1 2 tcp 1000 ------- 1 0.0 2.0 10 26
r 2.26144 1 2 tcp 1000 ------- 1 0.0 2.0 9 24
+ 2.26144 2 1 ack 40 ------- 1 2.0 0.0 9 29
- 2.26144 2 1 ack 40 ------- 1 2.0 0.0 9 29
r 2.27784 2 1 ack 40 ------- 1 2.0 0.0 9 29
+ 2.27784 1 0 ack 40 ------- 1 2.0 0.0 9 29
- 2.27784 1 0 ack 40 ------- 1 2.0 0.0 9 29
r 2.28816 1 0 ack 40 ------- 1 2.0 0.0 9 29
+ 2.28816 0 1 tcp 1000 ------- 1 0.0 2.0 12 30
- 2.28816 0 1 tcp 1000 ------- 1 0.0 2.0 12 30
+ 2.28816 0 1 tcp 1000 ------- 1 0.0 2.0 13 31
- 2.29616 0 1 tcp 1000 ------- 1 0.0 2.0 13 31
r 2.30616 0 1 tcp 1000 ------- 1 0.0 2.0 12 30
+ 2.30616 1 2 tcp 1000 ------- 1 0.0 2.0 12 30
r 2.31416 0 1 tcp 1000 ------- 1 0.0 2.0 13 31
+ 2.31416 1 2 tcp 1000 ------- 1 0.0 2.0 13 31
- 2.41144 1 2 tcp 1000 ------- 1 0.0 2.0 11 28
r 2.42144 1 2 tcp 1000 ------- 1 0.0 2.0 10 26
+ 2.42144 2 1 ack 40 ------- 1 2.0 0.0 10 32
- 2.42144 2 1 ack 40 ------- 1 2.0 0.0 10 32
r 2.43784 2 1 ack 40 ------- 1 2.0 0.0 10 32
+ 2.43784 1 0 ack 40 ------- 1 2.0 0.0 10 32
- 2.43784 1 0 ack 40 ------- 1 2.0 0.0 10 32
r 2.44816 1 0 ack 40 ------- 1 2.0 0.0 10 32
+ 2.44816 0 1 tcp 1000 ------- 1 0.0 2.0 14 33
- 2.44816 0 1 tcp 1000 ------- 1 0.0 2.0 14 33
r 2.46616 0 1 tcp 1000 ------- 1 0.0 2.0 14 33
+ 2.46616 1 2 tcp 1000 ------- 1 0.0 2.0 14 33
- 2.57144 1 2 tcp 1000 ------- 1 0.0 2.0 12 30
r 2.58144 1 2 tcp 1000 ------- 1 0.0 2.0 11 28
+ 2.58144 2 1 ack 40 ------- 1 2.0 0.0 11 34
- 2.58144 2 1 ack 40 ------- 1 2.0 0.0 11 34
r 2.59784 2 1 ack 40 ------- 1 2.0 0.0 11 34
+ 2.59784 1 0 ack 40 ------- 1 2.0 0.0 11 34
- 2.59784 1 0 ack 40 ------- 1 2.0 0.0 11 34
r 2.60816 1 0 ack 40 ------- 1 2.0 0.0 11 34
+ 2.60816 0 1 tcp 1000 ------- 1 0.0 2.0 15 35
- 2.60816 0 1 tcp 1000 ------- 1 0.0 2.0 15 35
r 2.62616 0 1 tcp 1000 ------- 1 0.0 2.0 15 35
+ 2.62616 1 2 tcp 1000 ------- 1 0.0 2.0 15 35
- 2.73144 1 2 tcp 1000 ------- 1 0.0 2.0 13 31
r 2.74144 1 2 tcp 1000 ------- 1 0.0 2.0 12 30
+ 2.74144 2 1 ack 40 ------- 1 2.0 0.0 12 36
- 2.74144 2 1 ack 40 ------- 1 2.0 0.0 12 36
r 2.75784 2 1 ack 40 ------- 1 2.0 0.0 12 36
+ 2.75784 1 0 ack 40 ------- 1 2.0 0.0 12 36
- 2.75784 1 0 ack 40 ------- 1 2.0 0.0 12 36
r 2.76816 1 0 ack 40 ------- 1 2.0 0.0 12 36
+ 2.76816 0 1 tcp 1000 ------- 1 0.0 2.0 16 37
- 2.76816 0 1 tcp 1000 ------- 1 0.0 2.0 16 37
r 2.78616 0 1 tcp 1000 ------- 1 0.0 2.0 16 37
+ 2.78616 1 2 tcp 1000 ------- 1 0.0 2.0 16 37
- 2.89144 1 2 tcp 1000 ------- 1 0.0 2.0 14 33
r 2.90144 1 2 tcp 1000 ------- 1 0.0 2.0 13 31
+ 2.90144 2 1 ack 40 ------- 1 2.0 0.0 13 38
- 2.90144 2 1 ack 40 ------- 1 2.0 0.0 13 38
r 2.91784 2 1 ack 40 ------- 1 2.0 0.0 13 38
+ 2.91784 1 0 ack 40 ------- 1 2.0 0.0 13 38
- 2.91784 1 0 ack 40 ------- 1 2.0 0.0 13 38
r 2.92816 1 0 ack 40 ------- 1 2.0 0.0 13 38
+ 2.92816 0 1 tcp 1000 ------- 1 0.0 2.0 17 39
- 2.92816 0 1 tcp 1000 ------- 1 0.0 2.0 17 39
r 2.94616 0 1 tcp 1000 ------- 1 0.0 2.0 17 39
+ 2.94616 1 2 tcp 1000 ------- 1 0.0 2.0 17 39
- 3.05144 1 2 tcp 1000 ------- 1 0.0 2.0 15 35
r 3.06144 1 2 tcp 1000 ------- 1 0.0 2.0 14 33
+ 3.06144 2 1 ack 40 ------- 1 2.0 0.0 14 40
- 3.06144 2 1 ack 40 ------- 1 2.0 0.0 14 40
r 3.07784 2 1 ack 40 ------- 1 2.0 0.0 14 40
+ 3.07784 1 0 ack 40 ------- 1 2.0 0.0 14 40
- 3.07784 1 0 ack 40 ------- 1 2.0 0.0 14 40
r 3.08816 1 0 ack 40 ------- 1 2.0 0.0 14 40
+ 3.08816 0 1 tcp 1000 ------- 1 0.0 2.0 18 41
- 3.08816 0 1 tcp 1000 ------- 1 0.0 2.0 18 41
+ 3.08816 0 1 tcp 1000 ------- 1 0.0 2.0 19 42
- 3.09616 0 1 tcp 1000 ------- 1 0.0 2.0 19 42
r 3.10616 0 1 tcp 1000 ------- 1 0.0 2.0 18 41
+ 3.10616 1 2 tcp 1000 ------- 1 0.0 2.0 18 41
r 3.11416 0 1 tcp 1000 ------- 1 0.0 2.0 19 42
+ 3.11416 1 2 tcp 1000 ------- 1 0.0 2.0 19 42
- 3.21144 1 2 tcp 1000 ------- 1 0.0 2.0 16 37
r 3.22144 1 2 tcp 1000 ------- 1 0.0 2.0 15 35
+ 3.22144 2 1 ack 40 ------- 1 2.0 0.0 15 43
- 3.22144 2 1 ack 40 ------- 1 2.0 0.0 15 43
r 3.23784 2 1 ack 40 ------- 1 2.0 0.0 15 43
+ 3.23784 1 0 ack 40 ------- 1 2.0 0.0 15 43
- 3.23784 1 0 ack 40 ------- 1 2.0 0.0 15 43
r 3.24816 1 0 ack 40 ------- 1 2.0 0.0 15 43
+ 3.24816 0 1 tcp 1000 ------- 1 0.0 2.0 20 44
- 3.24816 0 1 tcp 1000 ------- 1 0.0 2.0 20 44
r 3.26616 0 1 tcp 1000 ------- 1 0.0 2.0 20 44
+ 3.26616 1 2 tcp 1000 ------- 1 0.0 2.0 20 44
- 3.37144 1 2 tcp 1000 ------- 1 0.0 2.0 17 39
r 3.38144 1 2 tcp 1000 ------- 1 0.0 2.0 16 37
+ 3.38144 2 1 ack 40 ------- 1 2.0 0.0 16 45
- 3.38144 2 1 ack 40 ------- 1 2.0 0.0 16 45
r 3.39784 2 1 ack 40 ------- 1 2.0 0.0 16 45
+ 3.39784 1 0 ack 40 ------- 1 2.0 0.0 16 45
- 3.39784 1 0 ack 40 ------- 1 2.0 0.0 16 45
r 3.40816 1 0 ack 40 ------- 1 2.0 0.0 16 45
+ 3.40816 0 1 tcp 1000 ------- 1 0.0 2.0 21 46
- 3.40816 0 1 tcp 1000 ------- 1 0.0 2.0 21 46
r 3.42616 0 1 tcp 1000 ------- 1 0.0 2.0 21 46
+ 3.42616 1 2 tcp 1000 ------- 1 0.0 2.0 21 46
- 3.53144 1 2 tcp 1000 ------- 1 0.0 2.0 18 41
r 3.54144 1 2 tcp 1000 ------- 1 0.0 2.0 17 39
+ 3.54144 2 1 ack 40 ------- 1 2.0 0.0 17 47
- 3.54144 2 1 ack 40 ------- 1 2.0 0.0 17 47
r 3.55784 2 1 ack 40 ------- 1 2.0 0.0 17 47
+ 3.55784 1 0 ack 40 ------- 1 2.0 0.0 17 47
- 3.55784 1 0 ack 40 ------- 1 2.0 0.0 17 47
r 3.56816 1 0 ack 40 ------- 1 2.0 0.0 17 47
+ 3.56816 0 1 tcp 1000 ------- 1 0.0 2.0 22 48
- 3.56816 0 1 tcp 1000 ------- 1 0.0 2.0 22 48
r 3.58616 0 1 tcp 1000 ------- 1 0.0 2.0 22 48
+ 3.58616 1 2 tcp 1000 ------- 1 0.0 2.0 22 48
- 3.69144 1 2 tcp 1000 ------- 1 0.0 2.0 19 42
r 3.70144 1 2 tcp 1000 ------- 1 0.0 2.0 18 41
+ 3.70144 2 1 ack 40 ------- 1 2.0 0.0 18 49
- 3.70144 2 1 ack 40 ------- 1 2.0 0.0 18 49
r 3.71784 2 1 ack 40 ------- 1 2.0 0.0 18 49
+ 3.71784 1 0 ack 40 ------- 1 2.0 0.0 18 49
- 3.71784 1 0 ack 40 ------- 1 2.0 0.0 18 49
r 3.72816 1 0 ack 40 ------- 1 2.0 0.0 18 49
+ 3.72816 0 1 tcp 1000 ------- 1 0.0 2.0 23 50
- 3.72816 0 1 tcp 1000 ------- 1 0.0 2.0 23 50
r 3.74616 0 1 tcp 1000 ------- 1 0.0 2.0 23 50
+ 3.74616 1 2 tcp 1000 ------- 1 0.0 2.0 23 50
- 3.85144 1 2 tcp 1000 ------- 1 0.0 2.0 20 44
r 3.86144 1 2 tcp 1000 ------- 1 0.0 2.0 19 42
+ 3.86144 2 1 ack 40 ------- 1 2.0 0.0 19 51
- 3.86144 2 1 ack 40 ------- 1 2.0 0.0 19 51
r 3.87784 2 1 ack 40 ------- 1 2.0 0.0 19 51
+ 3.87784 1 0 ack 40 ------- 1 2.0 0.0 19 51
- 3.87784 1 0 ack 40 ------- 1 2.0 0.0 19 51
r 3.88816 1 0 ack 40 ------- 1 2.0 0.0 19 51
+ 3.88816 0 1 tcp 1000 ------- 1 0.0 2.0 24 52
- 3.88816 0 1 tcp 1000 ------- 1 0.0 2.0 24 52
+ 3.88816 0 1 tcp 1000 ------- 1 0.0 2.0 25 53
- 3.89616 0 1 tcp 1000 ------- 1 0.0 2.0 25 53
r 3.90616 0 1 tcp 1000 ------- 1 0.0 2.0 24 52
+ 3.90616 1 2 tcp 1000 ------- 1 0.0 2.0 24 52
r 3.91416 0 1 tcp 1000 ------- 1 0.0 2.0 25 53
+ 3.91416 1 2 tcp 1000 ------- 1 0.0 2.0 25 53
- 4.01144 1 2 tcp 1000 ------- 1 0.0 2.0 21 46
r 4.02144 1 2 tcp 1000 ------- 1 0.0 2.0 20 44
+ 4.02144 2 1 ack 40 ------- 1 2.0 0.0 20 54
- 4.02144 2 1 ack 40 ------- 1 2.0 0.0 20 54
r 4.03784 2 1 ack 40 ------- 1 2.0 0.0 20 54
+ 4.03784 1 0 ack 40 ------- 1 2.0 0.0 20 54
- 4.03784 1 0 ack 40 ------- 1 2.0 0.0 20 54
r 4.04816 1 0 ack 40 ------- 1 2.0 0.0 20 54
+ 4.04816 0 1 tcp 1000 ------- 1 0.0 2.0 26 55
- 4.04816 0 1 tcp 1000 ------- 1 0.0 2.0 26 55
r 4.06616 0 1 tcp 1000 ------- 1 0.0 2.0 26 55
+ 4.06616 1 2 tcp 1000 ------- 1 0.0 2.0 26 55
- 4.17144 1 2 tcp 1000 ------- 1 0.0 2.0 22 48
r 4.18144 1 2 tcp 1000 ------- 1 0.0 2.0 21 46
+ 4.18144 2 1 ack 40 ------- 1 2.0 0.0 21 56
- 4.18144 2 1 ack 40 ------- 1 2.0 0.0 21 56
r 4.19784 2 1 ack 40 ------- 1 2.0 0.0 21 56
+ 4.19784 1 0 ack 40 ------- 1 2.0 0.0 21 56
- 4.19784 1 0 ack 40 ------- 1 2.0 0.0 21 56
r 4.20816 1 0 ack 40 ------- 1 2.0 0.0 21 56
+ 4.20816 0 1 tcp 1000 ------- 1 0.0 2.0 27 57
- 4.20816 0 1 tcp 1000 ------- 1 0.0 2.0 27 57
r 4.22616 0 1 tcp 1000 ------- 1 0.0 2.0 27 57
+ 4.22616 1 2 tcp 1000 ------- 1 0.0 2.0 27 57
- 4.33144 1 2 tcp 1000 ------- 1 0.0 2.0 23 50
r 4.34144 1 2 tcp 1000 ------- 1 0.0 2.0 22 48
+ 4.34144 2 1 ack 40 ------- 1 2.0 0.0 22 58
- 4.34144 2 1 ack 40 ------- 1 2.0 0.0 22 58
r 4.35784 2 1 ack 40 ------- 1 2.0 0.0 22 58
+ 4.35784 1 0 ack 40 ------- 1 2.0 0.0 22 58
- 4.35784 1 0 ack 40 ------- 1 2.0 0.0 22 58
r 4.36816 1 0 ack 40 ------- 1 2.0 0.0 22 58
+ 4.36816 0 1 tcp 1000 ------- 1 0.0 2.0 28 59
- 4.36816 0 1 tcp 1000 ------- 1 0.0 2.0 28 59
r 4.38616 0 1 tcp 1000 ------- 1 0.0 2.0 28 59
+ 4.38616 1 2 tcp 1000 ------- 1 0.0 2.0 28 59
- 4.49144 1 2 tcp 1000 ------- 1 0.0 2.0 24 52
r 4.50144 1 2 tcp 1000 ------- 1 0.0 2.0 23 50
+ 4.50144 2 1 ack 40 ------- 1 2.0 0.0 23 60
- 4.50144 2 1 ack 40 ------- 1 2.0 0.0 23 60
r 4.51784 2 1 ack 40 ------- 1 2.0 0.0 23 60
+ 4.51784 1 0 ack 40 ------- 1 2.0 0.0 23 60
- 4.51784 1 0 ack 40 ------- 1 2.0 0.0 23 60
r 4.52816 1 0 ack 40 ------- 1 2.0 0.0 23 60
+ 4.52816 0 1 tcp 1000 ------- 1 0.0 2.0 29 61
- 4.52816 0 1 tcp 1000 ------- 1 0.0 2.0 29 61
r 4.54616 0 1 tcp 1000 ------- 1 0.0 2.0 29 61
+ 4.54616 1 2 tcp 1000 ------- 1 0.0 2.0 29 61
- 4.65144 1 2 tcp 1000 ------- 1 0.0 2.0 25 53
r 4.66144 1 2 tcp 1000 ------- 1 0.0 2.0 24 52
+ 4.66144 2 1 ack 40 ------- 1 2.0 0.0 24 62
- 4.66144 2 1 ack 40 ------- 1 2.0 0.0 24 62
r 4.67784 2 1 ack 40 ------- 1 2.0 0.0 24 62
+ 4.67784 1 0 ack 40 ------- 1 2.0 0.0 24 62
- 4.67784 1 0 ack 40 ------- 1 2.0 0.0 24 62
r 4.68816 1 0 ack 40 ------- 1 2.0 0.0 24 62
+ 4.68816 0 1 tcp 1000 ------- 1 0.0 2.0 30 63
- 4.68816 0 1 tcp 1000 ------- 1 0.0 2.0 30 63
r 4.70616 0 1 tcp 1000 ------- 1 0.0 2.0 30 63
+ 4.70616 1 2 tcp 1000 ------- 1 0.0 2.0 30 63
- 4.81144 1 2 tcp 1000 ------- 1 0.0 2.0 26 55
r 4.82144 1 2 tcp 1000 ------- 1 0.0 2.0 25 53
+ 4.82144 2 1 ack 40 ------- 1 2.0 0.0 25 64
- 4.82144 2 1 ack 40 ------- 1 2.0 0.0 25 64
r 4.83784 2 1 ack 40 ------- 1 2.0 0.0 25 64
+ 4.83784 1 0 ack 40 ------- 1 2.0 0.0 25 64
- 4.83784 1 0 ack 40 ------- 1 2.0 0.0 25 64
r 4.84816 1 0 ack 40 ------- 1 2.0 0.0 25 64
+ 4.84816 0 1 tcp 1000 ------- 1 0.0 2.0 31 65
- 4.84816 0 1 tcp 1000 ------- 1 0.0 2.0 31 65
+ 4.84816 0 1 tcp 1000 ------- 1 0.0 2.0 32 66
- 4.85616 0 1 tcp 1000 ------- 1 0.0 2.0 32 66
r 4.86616 0 1 tcp 1000 ------- 1 0.0 2.0 31 65
+ 4.86616 1 2 tcp 1000 ------- 1 0.0 2.0 31 65
r 4.87416 0 1 tcp 1000 ------- 1 0.0 2.0 32 66
+ 4.87416 1 2 tcp 1000 ------- 1 0.0 2.0 32 66
- 4.97144 1 2 tcp 1000 ------- 1 0.0 2.0 27 57
r 4.98144 1 2 tcp 1000 ------- 1 0.0 2.0 26 55
+ 4.98144 2 1 ack 40 ------- 1 2.0 0.0 26 67
- 4.98144 2 1 ack 40 ------- 1 2.0 0.0 26 67
r 4.99784 2 1 ack 40 ------- 1 2.0 0.0 26 67
+ 4.99784 1 0 ack 40 ------- 1 2.0 0.0 26 67
- 4.99784 1 0 ack 40 ------- 1 2.0 0.0 26 67
r 5.00816 1 0 ack 40 ------- 1 2.0 0.0 26 67
+ 5.00816 0 1 tcp 1000 ------- 1 0.0 2.0 33 68
- 5.00816 0 1 tcp 1000 ------- 1 0.0 2.0 33 68
r 5.02616 0 1 tcp 1000 ------- 1 0.0 2.0 33 68
+ 5.02616 1 2 tcp 1000 ------- 1 0.0 2.0 33 68
- 5.13144 1 2 tcp 1000 ------- 1 0.0 2.0 28 59
r 5.14144 1 2 tcp 1000 ------- 1 0.0 2.0 27 57
+ 5.14144 2 1 ack 40 ------- 1 2.0 0.0 27 69
- 5.14144 2 1 ack 40 ------- 1 2.0 0.0 27 69
r 5.15784 2 1 ack 40 ------- 1 2.0 0.0 27 69
+ 5.15784 1 0 ack 40 ------- 1 2.0 0.0 27 69
- 5.15784 1 0 ack 40 ------- 1 2.0 0.0 27 69
r 5.16816 1 0 ack 40 ------- 1 2.0 0.0 27 69
+ 5.16816 0 1 tcp 1000 ------- 1 0.0 2.0 34 70
- 5.16816 0 1 tcp 1000 ------- 1 0.0 2.0 34 70
r 5.18616 0 1 tcp 1000 ------- 1 0.0 2.0 34 70
+ 5.18616 1 2 tcp 1000 ------- 1 0.0 2.0 34 70
- 5.29144 1 2 tcp 1000 ------- 1 0.0 2.0 29 61
r 5.30144 1 2 tcp 1000 ------- 1 0.0 2.0 28 59
+ 5.30144 2 1 ack 40 ------- 1 2.0 0.0 28 71
- 5.30144 2 1 ack 40 ------- 1 2.0 0.0 28 71
r 5.31784 2 1 ack 40 ------- 1 2.0 0.0 28 71
+ 5.31784 1 0 ack 40 ------- 1 2.0 0.0 28 71
- 5.31784 1 0 ack 40 ------- 1 2.0 0.0 28 71
r 5.32816 1 0 ack 40 ------- 1 2.0 0.0 28 71
+ 5.32816 0 1 tcp 1000 ------- 1 0.0 2.0 35 72
- 5.32816 0 1 tcp 1000 ------- 1 0.0 2.0 35 72
r 5.34616 0 1 tcp 1000 ------- 1 0.0 2.0 35 72
+ 5.34616 1 2 tcp 1000 ------- 1 0.0 2.0 35 72
- 5.45144 1 2 tcp 1000 ------- 1 0.0 2.0 30 63
r 5.46144 1 2 tcp 1000 ------- 1 0.0 2.0 29 61
+ 5.46144 2 1 ack 40 ------- 1 2.0 0.0 29 73
- 5.46144 2 1 ack 40 ------- 1 2.0 0.0 29 73
r 5.47784 2 1 ack 40 ------- 1 2.0 0.0 29 73
+ 5.47784 1 0 ack 40 ------- 1 2.0 0.0 29 73
- 5.47784 1 0 ack 40 ------- 1 2.0 0.0 29 73
r 5.48816 1 0 ack 40 ------- 1 2.0 0.0 29 73
+ 5.48816 0 1 tcp 1000 ------- 1 0.0 2.0 36 74
- 5.48816 0 1 tcp 1000 ------- 1 0.0 2.0 36 74
r 5.50616 0 1 tcp 1000 ------- 1 0.0 2.0 36 74
+ 5.50616 1 2 tcp 1000 ------- 1 0.0 2.0 36 74
- 5.61144 1 2 tcp 1000 ------- 1 0.0 2.0 31 65
r 5.62144 1 2 tcp 1000 ------- 1 0.0 2.0 30 63
+ 5.62144 2 1 ack 40 ------- 1 2.0 0.0 30 75
- 5.62144 2 1 ack 40 ------- 1 2.0 0.0 30 75
r 5.63784 2 1 ack 40 ------- 1 2.0 0.0 30 75
+ 5.63784 1 0 ack 40 ------- 1 2.0 0.0 30 75
- 5.63784 1 0 ack 40 ------- 1 2.0 0.0 30 75
r 5.64816 1 0 ack 40 ------- 1 2.0 0.0 30 75
+ 5.64816 0 1 tcp 1000 ------- 1 0.0 2.0 37 76
- 5.64816 0 1 tcp 1000 ------- 1 0.0 2.0 37 76
r 5.66616 0 1 tcp 1000 ------- 1 0.0 2.0 37 76
+ 5.66616 1 2 tcp 1000 ------- 1 0.0 2.0 37 76
- 5.77144 1 2 tcp 1000 ------- 1 0.0 2.0 32 66
r 5.78144 1 2 tcp 1000 ------- 1 0.0 2.0 31 65
+ 5.78144 2 1 ack 40 ------- 1 2.0 0.0 31 77
- 5.78144 2 1 ack 40 ------- 1 2.0 0.0 31 77
r 5.79784 2 1 ack 40 ------- 1 2.0 0.0 31 77
+ 5.79784 1 0 ack 40 ------- 1 2.0 0.0 31 77
- 5.79784 1 0 ack 40 ------- 1 2.0 0.0 31 77
r 5.80816 1 0 ack 40 ------- 1 2.0 0.0 31 77
+ 5.80816 0 1 tcp 1000 ------- 1 0.0 2.0 38 78
- 5.80816 0 1 tcp 1000 ------- 1 0.0 2.0 38 78
r 5.82616 0 1 tcp 1000 ------- 1 0.0 2.0 38 78
+ 5.82616 1 2 tcp 1000 ------- 1 0.0 2.0 38 78
- 5.93144 1 2 tcp 1000 ------- 1 0.0 2.0 33 68
r 5.94144 1 2 tcp 1000 ------- 1 0.0 2.0 32 66
+ 5.94144 2 1 ack 40 ------- 1 2.0 0.0 32 79
- 5.94144 2 1 ack 40 ------- 1 2.0 0.0 32 79
r 5.95784 2 1 ack 40 ------- 1 2.0 0.0 32 79
+ 5.95784 1 0 ack 40 ------- 1 2.0 0.0 32 79
- 5.95784 1 0 ack 40 ------- 1 2.0 0.0 32 79
r 5.96816 1 0 ack 40 ------- 1 2.0 0.0 32 79
+ 5.96816 0 1 tcp 1000 ------- 1 0.0 2.0 39 80
- 5.96816 0 1 tcp 1000 ------- 1 0.0 2.0 39 80
r 5.98616 0 1 tcp 1000 ------- 1 0.0 2.0 39 80
+ 5.98616 1 2 tcp 1000 ------- 1 0.0 2.0 39 80
- 6.09144 1 2 tcp 1000 ------- 1 0.0 2.0 34 70
r 6.10144 1 2 tcp 1000 ------- 1 0.0 2.0 33 68
+ 6.10144 2 1 ack 40 ------- 1 2.0 0.0 33 81
- 6.10144 2 1 ack 40 ------- 1 2.0 0.0 33 81
r 6.11784 2 1 ack 40 ------- 1 2.0 0.0 33 81
+ 6.11784 1 0 ack 40 ------- 1 2.0 0.0 33 81
- 6.11784 1 0 ack 40 ------- 1 2.0 0.0 33 81
r 6.12816 1 0 ack 40 ------- 1 2.0 0.0 33 81
+ 6.12816 0 1 tcp 1000 ------- 1 0.0 2.0 40 82
- 6.12816 0 1 tcp 1000 ------- 1 0.0 2.0 40 82
+ 6.12816 0 1 tcp 1000 ------- 1 0.0 2.0 41 83
- 6.13616 0 1 tcp 1000 ------- 1 0.0 2.0 41 83
r 6.14616 0 1 tcp 1000 ------- 1 0.0 2.0 40 82
+ 6.14616 1 2 tcp 1000 ------- 1 0.0 2.0 40 82
r 6.15416 0 1 tcp 1000 ------- 1 0.0 2.0 41 83
+ 6.15416 1 2 tcp 1000 ------- 1 0.0 2.0 41 83
- 6.25144 1 2 tcp 1000 ------- 1 0.0 2.0 35 72
r 6.26144 1 2 tcp 1000 ------- 1 0.0 2.0 34 70
+ 6.26144 2 1 ack 40 ------- 1 2.0 0.0 34 84
- 6.26144 2 1 ack 40 ------- 1 2.0 0.0 34 84
r 6.27784 2 1 ack 40 ------- 1 2.0 0.0 34 84
+ 6.27784 1 0 ack 40 ------- 1 2.0 0.0 34 84
- 6.27784 1 0 ack 40 ------- 1 2.0 0.0 34 84
r 6.28816 1 0 ack 40 ------- 1 2.0 0.0 34 84
+ 6.28816 0 1 tcp 1000 ------- 1 0.0 2.0 42 85
- 6.28816 0 1 tcp 1000 ------- 1 0.0 2.0 42 85
r 6.30616 0 1 tcp 1000 ------- 1 0.0 2.0 42 85
+ 6.30616 1 2 tcp 1000 ------- 1 0.0 2.0 42 85
- 6.41144 1 2 tcp 1000 ------- 1 0.0 2.0 36 74
r 6.42144 1 2 tcp 1000 ------- 1 0.0 2.0 35 72
+ 6.42144 2 1 ack 40 ------- 1 2.0 0.0 35 86
- 6.42144 2 1 ack 40 ------- 1 2.0 0.0 35 86
r 6.43784 2 1 ack 40 ------- 1 2.0 0.0 35 86
+ 6.43784 1 0 ack 40 ------- 1 2.0 0.0 35 86
- 6.43784 1 0 ack 40 ------- 1 2.0 0.0 35 86
r 6.44816 1 0 ack 40 ------- 1 2.0 0.0 35 86
+ 6.44816 0 1 tcp 1000 ------- 1 0.0 2.0 43 87
- 6.44816 0 1 tcp 1000 ------- 1 0.0 2.0 43 87
r 6.46616 0 1 tcp 1000 ------- 1 0.0 2.0 43 87
+ 6.46616 1 2 tcp 1000 ------- 1 0.0 2.0 43 87
- 6.57144 1 2 tcp 1000 ------- 1 0.0 2.0 37 76
r 6.58144 1 2 tcp 1000 ------- 1 0.0 2.0 36 74
+ 6.58144 2 1 ack 40 ------- 1 2.0 0.0 36 88
- 6.58144 2 1 ack 40 ------- 1 2.0 0.0 36 88
r 6.59784 2 1 ack 40 ------- 1 2.0 0.0 36 88
+ 6.59784 1 0 ack 40 ------- 1 2.0 0.0 36 88
- 6.59784 1 0 ack 40 ------- 1 2.0 0.0 36 88
r 6.60816 1 0 ack 40 ------- 1 2.0 0.0 36 88
+ 6.60816 0 1 tcp 1000 ------- 1 0.0 2.0 44 89
- 6.60816 0 1 tcp 1000 ------- 1 0.0 2.0 44 89
r 6.62616 0 1 tcp 1000 ------- 1 0.0 2.0 44 89
+ 6.62616 1 2 tcp 1000 ------- 1 0.0 2.0 44 89
- 6.73144 1 2 tcp 1000 ------- 1 0.0 2.0 38 78
r 6.74144 1 2 tcp 1000 ------- 1 0.0 2.0 37 76
+ 6.74144 2 1 ack 40 ------- 1 2.0 0.0 37 90
- 6.74144 2 1 ack 40 ------- 1 2.0 0.0 37 90
r 6.75784 2 1 ack 40 ------- 1 2.0 0.0 37 90
+ 6.75784 1 0 ack 40 ------- 1 2.0 0.0 37 90
- 6.75784 1 0 ack 40 ------- 1 2.0 0.0 37 90
r 6.76816 1 0 ack 40 ------- 1 2.0 0.0 37 90
+ 6.76816 0 1 tcp 1000 ------- 1 0.0 2.0 45 91
- 6.76816 0 1 tcp 1000 ------- 1 0.0 2.0 45 91
r 6.78616 0 1 tcp 1000 ------- 1 0.0 2.0 45 91
+ 6.78616 1 2 tcp 1000 ------- 1 0.0 2.0 45 91
- 6.89144 1 2 tcp 1000 ------- 1 0.0 2.0 39 80
r 6.90144 1 2 tcp 1000 ------- 1 0.0 2.0 38 78
+ 6.90144 2 1 ack 40 ------- 1 2.0 0.0 38 92
- 6.90144 2 1 ack 40 ------- 1 2.0 0.0 38 92
r 6.91784 2 1 ack 40 ------- 1 2.0 0.0 38 92
+ 6.91784 1 0 ack 40 ------- 1 2.0 0.0 38 92
- 6.91784 1 0 ack 40 ------- 1 2.0 0.0 38 92
r 6.92816 1 0 ack 40 ------- 1 2.0 0.0 38 92
+ 6.92816 0 1 tcp 1000 ------- 1 0.0 2.0 46 93
- 6.92816 0 1 tcp 1000 ------- 1 0.0 2.0 46 93
r 6.94616 0 1 tcp 1000 ------- 1 0.0 2.0 46 93
+ 6.94616 1 2 tcp 1000 ------- 1 0.0 2.0 46 93
- 7.05144 1 2 tcp 1000 ------- 1 0.0 2.0 40 82
r 7.06144 1 2 tcp 1000 ------- 1 0.0 2.0 39 80
+ 7.06144 2 1 ack 40 ------- 1 2.0 0.0 39 94
- 7.06144 2 1 ack 40 ------- 1 2.0 0.0 39 94
r 7.07784 2 1 ack 40 ------- 1 2.0 0.0 39 94
+ 7.07784 1 0 ack 40 ------- 1 2.0 0.0 39 94
- 7.07784 1 0 ack 40 ------- 1 2.0 0.0 39 94
r 7.08816 1 0 ack 40 ------- 1 2.0 0.0 39 94
+ 7.08816 0 1 tcp 1000 ------- 1 0.0 2.0 47 95
- 7.08816 0 1 tcp 1000 ------- 1 0.0 2.0 47 95
r 7.10616 0 1 tcp 1000 ------- 1 0.0 2.0 47 95
+ 7.10616 1 2 tcp 1000 ------- 1 0.0 2.0 47 95
- 7.21144 1 2 tcp 1000 ------- 1 0.0 2.0 41 83
r 7.22144 1 2 tcp 1000 ------- 1 0.0 2.0 40 82
+ 7.22144 2 1 ack 40 ------- 1 2.0 0.0 40 96
- 7.22144 2 1 ack 40 ------- 1 2.0 0.0 40 96
r 7.23784 2 1 ack 40 ------- 1 2.0 0.0 40 96
+ 7.23784 1 0 ack 40 ------- 1 2.0 0.0 40 96
- 7.23784 1 0 ack 40 ------- 1 2.0 0.0 40 96
r 7.24816 1 0 ack 40 ------- 1 2.0 0.0 40 96
+ 7.24816 0 1 tcp 1000 ------- 1 0.0 2.0 48 97
- 7.24816 0 1 tcp 1000 ------- 1 0.0 2.0 48 97
r 7.26616 0 1 tcp 1000 ------- 1 0.0 2.0 48 97
+ 7.26616 1 2 tcp 1000 ------- 1 0.0 2.0 48 97
- 7.37144 1 2 tcp 1000 ------- 1 0.0 2.0 42 85
r 7.38144 1 2 tcp 1000 ------- 1 0.0 2.0 41 83
+ 7.38144 2 1 ack 40 ------- 1 2.0 0.0 41 98
- 7.38144 2 1 ack 40 ------- 1 2.0 0.0 41 98
r 7.39784 2 1 ack 40 ------- 1 2.0 0.0 41 98
+ 7.39784 1 0 ack 40 ------- 1 2.0 0.0 41 98
- 7.39784 1 0 ack 40 ------- 1 2.0 0.0 41 98
r 7.40816 1 0 ack 40 ------- 1 2.0 0.0 41 98
+ 7.40816 0 1 tcp 1000 ------- 1 0.0 2.0 49 99
- 7.40816 0 1 tcp 1000 ------- 1 0.0 2.0 49 99
+ 7.40816 0 1 tcp 1000 ------- 1 0.0 2.0 50 100
- 7.41616 0 1 tcp 1000 ------- 1 0.0 2.0 50 100
r 7.42616 0 1 tcp 1000 ------- 1 0.0 2.0 49 99
+ 7.42616 1 2 tcp 1000 ------- 1 0.0 2.0 49 99
r 7.43416 0 1 tcp 1000 ------- 1 0.0 2.0 50 100
+ 7.43416 1 2 tcp 1000 ------- 1 0.0 2.0 50 100
- 7.53144 1 2 tcp 1000 ------- 1 0.0 2.0 43 87
r 7.54144 1 2 tcp 1000 ------- 1 0.0 2.0 42 85
+ 7.54144 2 1 ack 40 ------- 1 2.0 0.0 42 101
- 7.54144 2 1 ack 40 ------- 1 2.0 0.0 42 101
r 7.55784 2 1 ack 40 ------- 1 2.0 0.0 42 101
+ 7.55784 1 0 ack 40 ------- 1 2.0 0.0 42 101
- 7.55784 1 0 ack 40 ------- 1 2.0 0.0 42 101
r 7.56816 1 0 ack 40 ------- 1 2.0 0.0 42 101
+ 7.56816 0 1 tcp 1000 ------- 1 0.0 2.0 51 102
- 7.56816 0 1 tcp 1000 ------- 1 0.0 2.0 51 102
r 7.58616 0 1 tcp 1000 ------- 1 0.0 2.0 51 102
+ 7.58616 1 2 tcp 1000 ------- 1 0.0 2.0 51 102
- 7.69144 1 2 tcp 1000 ------- 1 0.0 2.0 44 89
r 7.70144 1 2 tcp 1000 ------- 1 0.0 2.0 43 87
+ 7.70144 2 1 ack 40 ------- 1 2.0 0.0 43 103
- 7.70144 2 1 ack 40 ------- 1 2.0 0.0 43 103
r 7.71784 2 1 ack 40 ------- 1 2.0 0.0 43 103
+ 7.71784 1 0 ack 40 ------- 1 2.0 0.0 43 103
- 7.71784 1 0 ack 40 ------- 1 2.0 0.0 43 103
r 7.72816 1 0 ack 40 ------- 1 2.0 0.0 43 103
+ 7.72816 0 1 tcp 1000 ------- 1 0.0 2.0 52 104
- 7.72816 0 1 tcp 1000 ------- 1 0.0 2.0 52 104
r 7.74616 0 1 tcp 1000 ------- 1 0.0 2.0 52 104
+ 7.74616 1 2 tcp 1000 ------- 1 0.0 2.0 52 104
- 7.85144 1 2 tcp 1000 ------- 1 0.0 2.0 45 91
r 7.86144 1 2 tcp 1000 ------- 1 0.0 2.0 44 89
+ 7.86144 2 1 ack 40 ------- 1 2.0 0.0 44 105
- 7.86144 2 1 ack 40 ------- 1 2.0 0.0 44 105
r 7.87784 2 1 ack 40 ------- 1 2.0 0.0 44 105
+ 7.87784 1 0 ack 40 ------- 1 2.0 0.0 44 105
- 7.87784 1 0 ack 40 ------- 1 2.0 0.0 44 105
r 7.88816 1 0 ack 40 ------- 1 2.0 0.0 44 105
+ 7.88816 0 1 tcp 1000 ------- 1 0.0 2.0 53 106
- 7.88816 0 1 tcp 1000 ------- 1 0.0 2.0 53 106
r 7.90616 0 1 tcp 1000 ------- 1 0.0 2.0 53 106
+ 7.90616 1 2 tcp 1000 ------- 1 0.0 2.0 53 106
- 8.01144 1 2 tcp 1000 ------- 1 0.0 2.0 46 93
r 8.02144 1 2 tcp 1000 ------- 1 0.0 2.0 45 91
+ 8.02144 2 1 ack 40 ------- 1 2.0 0.0 45 107
- 8.02144 2 1 ack 40 ------- 1 2.0 0.0 45 107
r 8.03784 2 1 ack 40 ------- 1 2.0 0.0 45 107
+ 8.03784 1 0 ack 40 ------- 1 2.0 0.0 45 107
- 8.03784 1 0 ack 40 ------- 1 2.0 0.0 45 107
r 8.04816 1 0 ack 40 ------- 1 2.0 0.0 45 107
+ 8.04816 0 1 tcp 1000 ------- 1 0.0 2.0 54 108
- 8.04816 0 1 tcp 1000 ------- 1 0.0 2.0 54 108
r 8.06616 0 1 tcp 1000 ------- 1 0.0 2.0 54 108
+ 8.06616 1 2 tcp 1000 ------- 1 0.0 2.0 54 108
- 8.17144 1 2 tcp 1000 ------- 1 0.0 2.0 47 95
r 8.18144 1 2 tcp 1000 ------- 1 0.0 2.0 46 93
+ 8.18144 2 1 ack 40 ------- 1 2.0 0.0 46 109
- 8.18144 2 1 ack 40 ------- 1 2.0 0.0 46 109
r 8.19784 2 1 ack 40 ------- 1 2.0 0.0 46 109
+ 8.19784 1 0 ack 40 ------- 1 2.0 0.0 46 109
- 8.19784 1 0 ack 40 ------- 1 2.0 0.0 46 109
r 8.20816 1 0 ack 40 ------- 1 2.0 0.0 46 109
+ 8.20816 0 1 tcp 1000 ------- 1 0.0 2.0 55 110
- 8.20816 0 1 tcp 1000 ------- 1 0.0 2.0 55 110
r 8.22616 0 1 tcp 1000 ------- 1 0.0 2.0 55 110
+ 8.22616 1 2 tcp 1000 ------- 1 0.0 2.0 55 110
- 8.33144 1 2 tcp 1000 ------- 1 0.0 2.0 48 97
r 8.34144 1 2 tcp 1000 ------- 1 0.0 2.0 47 95
+ 8.34144 2 1 ack 40 ------- 1 2.0 0.0 47 111
- 8.34144 2 1 ack 40 ------- 1 2.0 0.0 47 111
r 8.35784 2 1 ack 40 ------- 1 2.0 0.0 47 111
+ 8.35784 1 0 ack 40 ------- 1 2.0 0.0 47 111