+ 0.1 0 1 tcp 40 ------- 1 0.0 2.0 0 0
- 0.1 0 1 tcp 40 ------- 1 0.0 2.0 0 0
r 0.11032 0 1 tcp 40 ------- 1 0.0 2.0 0 0
+ 0.11032 1 2 tcp 40 ------- 1 0.0 2.0 0 0
- 0.11032 1 2 tcp 40 ------- 1 0.0 2.0 0 0
r 0.12672 1 2 tcp 40 ------- 1 0.0 2.0 0 0
+ 0.12672 2 1 ack 40 ------- 1 2.0 0.0 0 1
- 0.12672 2 1 ack 40 ------- 1 2.0 0.0 0 1
r 0.14312 2 1 ack 40 ------- 1 2.0 0.0 0 1
+ 0.14312 1 0 ack 40 ------- 1 2.0 0.0 0 1
- 0.14312 1 0 ack 40 ------- 1 2.0 0.0 0 1
r 0.15344 1 0 ack 40 ------- 1 2.0 0.0 0 1
+ 0.15344 0 1 tcp 1040 ------- 1 0.0 2.0 1 2
- 0.15344 0 1 tcp 1040 ------- 1 0.0 2.0 1 2
+ 0.15344 0 1 tcp 1040 ------- 1 0.0 2.0 2 3
- 0.16176 0 1 tcp 1040 ------- 1 0.0 2.0 2 3
r 0.17176 0 1 tcp 1040 ------- 1 0.0 2.0 1 2
+ 0.17176 1 2 tcp 1040 ------- 1 0.0 2.0 1 2
- 0.17176 1 2 tcp 1040 ------- 1 0.0 2.0 1 2
r 0.18008 0 1 tcp 1040 ------- 1 0.0 2.0 2 3
+ 0.18008 1 2 tcp 1040 ------- 1 0.0 2.0 2 3
- 0.33816 1 2 tcp 1040 ------- 1 0.0 2.0 2 3
r 0.34816 1 2 tcp 1040 ------- 1 0.0 2.0 1 2
+ 0.34816 2 1 ack 40 ------- 1 2.0 0.0 1 4
- 0.34816 2 1 ack 40 ------- 1 2.0 0.0 1 4
+ 0.35344 0 1 tcp 1040 ---A--- 1 0.0 2.0 1 5
- 0.35344 0 1 tcp 1040 ---A--- 1 0.0 2.0 1 5
r 0.36456 2 1 ack 40 ------- 1 2.0 0.0 1 4
+ 0.36456 1 0 ack 40 ------- 1 2.0 0.0 1 4
- 0.36456 1 0 ack 40 ------- 1 2.0 0.0 1 4
r 0.37176 0 1 tcp 1040 ---A--- 1 0.0 2.0 1 5
+ 0.37176 1 2 tcp 1040 ---A--- 1 0.0 2.0 1 5
r 0.37488 1 0 ack 40 ------- 1 2.0 0.0 1 4
+ 0.37488 0 1 tcp 1040 ------- 1 0.0 2.0 2 6
- 0.37488 0 1 tcp 1040 ------- 1 0.0 2.0 2 6
+ 0.37488 0 1 tcp 1040 ------- 1 0.0 2.0 3 7
- 0.3832 0 1 tcp 1040 ------- 1 0.0 2.0 3 7
r 0.3932 0 1 tcp 1040 ------- 1 0.0 2.0 2 6
+ 0.3932 1 2 tcp 1040 ------- 1 0.0 2.0 2 6
r 0.40152 0 1 tcp 1040 ------- 1 0.0 2.0 3 7
+ 0.40152 1 2 tcp 1040 ------- 1 0.0 2.0 3 7
- 0.50456 1 2 tcp 1040 ---A--- 1 0.0 2.0 1 5
r 0.51456 1 2 tcp 1040 ------- 1 0.0 2.0 2 3
+ 0.51456 2 1 ack 40 ------- 1 2.0 0.0 2 8
- 0.51456 2 1 ack 40 ------- 1 2.0 0.0 2 8
r 0.53096 2 1 ack 40 ------- 1 2.0 0.0 2 8
+ 0.53096 1 0 ack 40 ------- 1 2.0 0.0 2 8
- 0.53096 1 0 ack 40 ------- 1 2.0 0.0 2 8
r 0.54128 1 0 ack 40 ------- 1 2.0 0.0 2 8
+ 0.54128 0 1 tcp 1040 ------- 1 0.0 2.0 4 9
- 0.54128 0 1 tcp 1040 ------- 1 0.0 2.0 4 9
r 0.5596 0 1 tcp 1040 ------- 1 0.0 2.0 4 9
+ 0.5596 1 2 tcp 1040 ------- 1 0.0 2.0 4 9
- 0.67096 1 2 tcp 1040 ------- 1 0.0 2.0 2 6
r 0.68096 1 2 tcp 1040 ---A--- 1 0.0 2.0 1 5
+ 0.68096 2 1 ack 40 ------- 1 2.0 0.0 2 10
- 0.68096 2 1 ack 40 ------- 1 2.0 0.0 2 10
r 0.69736 2 1 ack 40 ------- 1 2.0 0.0 2 10
+ 0.69736 1 0 ack 40 ------- 1 2.0 0.0 2 10
- 0.69736 1 0 ack 40 ------- 1 2.0 0.0 2 10
r 0.70768 1 0 ack 40 ------- 1 2.0 0.0 2 10
+ 0.70768 0 1 tcp 1040 ------- 1 0.0 2.0 5 11
- 0.70768 0 1 tcp 1040 ------- 1 0.0 2.0 5 11
r 0.726 0 1 tcp 1040 ------- 1 0.0 2.0 5 11
+ 0.726 1 2 tcp 1040 ------- 1 0.0 2.0 5 11
- 0.83736 1 2 tcp 1040 ------- 1 0.0 2.0 3 7
r 0.84736 1 2 tcp 1040 ------- 1 0.0 2.0 2 6
+ 0.84736 2 1 ack 40 ------- 1 2.0 0.0 2 12
- 0.84736 2 1 ack 40 ------- 1 2.0 0.0 2 12
r 0.86376 2 1 ack 40 ------- 1 2.0 0.0 2 12
+ 0.86376 1 0 ack 40 ------- 1 2.0 0.0 2 12
- 0.86376 1 0 ack 40 ------- 1 2.0 0.0 2 12
r 0.87408 1 0 ack 40 ------- 1 2.0 0.0 2 12
+ 0.87408 0 1 tcp 1040 ------- 1 0.0 2.0 6 13
- 0.87408 0 1 tcp 1040 ------- 1 0.0 2.0 6 13
r 0.8924 0 1 tcp 1040 ------- 1 0.0 2.0 6 13
+ 0.8924 1 2 tcp 1040 ------- 1 0.0 2.0 6 13
+ 0.94128 0 1 tcp 1040 ---A--- 1 0.0 2.0 3 14
- 0.94128 0 1 tcp 1040 ---A--- 1 0.0 2.0 3 14
r 0.9596 0 1 tcp 1040 ---A--- 1 0.0 2.0 3 14
+ 0.9596 1 2 tcp 1040 ---A--- 1 0.0 2.0 3 14
- 1.00376 1 2 tcp 1040 ------- 1 0.0 2.0 4 9
r 1.01376 1 2 tcp 1040 ------- 1 0.0 2.0 3 7
+ 1.01376 2 1 ack 40 ------- 1 2.0 0.0 3 15
- 1.01376 2 1 ack 40 ------- 1 2.0 0.0 3 15
r 1.03016 2 1 ack 40 ------- 1 2.0 0.0 3 15
+ 1.03016 1 0 ack 40 ------- 1 2.0 0.0 3 15
- 1.03016 1 0 ack 40 ------- 1 2.0 0.0 3 15
r 1.04048 1 0 ack 40 ------- 1 2.0 0.0 3 15
+ 1.04048 0 1 tcp 1040 ------- 1 0.0 2.0 4 16
- 1.04048 0 1 tcp 1040 ------- 1 0.0 2.0 4 16
+ 1.04048 0 1 tcp 1040 ------- 1 0.0 2.0 5 17
- 1.0488 0 1 tcp 1040 ------- 1 0.0 2.0 5 17
r 1.0588 0 1 tcp 1040 ------- 1 0.0 2.0 4 16
+ 1.0588 1 2 tcp 1040 ------- 1 0.0 2.0 4 16
r 1.06712 0 1 tcp 1040 ------- 1 0.0 2.0 5 17
+ 1.06712 1 2 tcp 1040 ------- 1 0.0 2.0 5 17
- 1.17016 1 2 tcp 1040 ------- 1 0.0 2.0 5 11
r 1.18016 1 2 tcp 1040 ------- 1 0.0 2.0 4 9
+ 1.18016 2 1 ack 40 ------- 1 2.0 0.0 4 18
- 1.18016 2 1 ack 40 ------- 1 2.0 0.0 4 18
r 1.19656 2 1 ack 40 ------- 1 2.0 0.0 4 18
+ 1.19656 1 0 ack 40 ------- 1 2.0 0.0 4 18
- 1.19656 1 0 ack 40 ------- 1 2.0 0.0 4 18
r 1.20688 1 0 ack 40 ------- 1 2.0 0.0 4 18
+ 1.20688 0 1 tcp 1040 ------- 1 0.0 2.0 6 19
- 1.20688 0 1 tcp 1040 ------- 1 0.0 2.0 6 19
r 1.2252 0 1 tcp 1040 ------- 1 0.0 2.0 6 19
+ 1.2252 1 2 tcp 1040 ------- 1 0.0 2.0 6 19
- 1.33656 1 2 tcp 1040 ------- 1 0.0 2.0 6 13
r 1.34656 1 2 tcp 1040 ------- 1 0.0 2.0 5 11
+ 1.34656 2 1 ack 40 ------- 1 2.0 0.0 5 20
- 1.34656 2 1 ack 40 ------- 1 2.0 0.0 5 20
r 1.36296 2 1 ack 40 ------- 1 2.0 0.0 5 20
+ 1.36296 1 0 ack 40 ------- 1 2.0 0.0 5 20
- 1.36296 1 0 ack 40 ------- 1 2.0 0.0 5 20
r 1.37328 1 0 ack 40 ------- 1 2.0 0.0 5 20
+ 1.37328 0 1 tcp 1040 ------- 1 0.0 2.0 7 21
- 1.37328 0 1 tcp 1040 ------- 1 0.0 2.0 7 21
r 1.3916 0 1 tcp 1040 ------- 1 0.0 2.0 7 21
+ 1.3916 1 2 tcp 1040 ------- 1 0.0 2.0 7 21
- 1.50296 1 2 tcp 1040 ---A--- 1 0.0 2.0 3 14
r 1.51296 1 2 tcp 1040 ------- 1 0.0 2.0 6 13
+ 1.51296 2 1 ack 40 ------- 1 2.0 0.0 6 22
- 1.51296 2 1 ack 40 ------- 1 2.0 0.0 6 22
r 1.52936 2 1 ack 40 ------- 1 2.0 0.0 6 22
+ 1.52936 1 0 ack 40 ------- 1 2.0 0.0 6 22
- 1.52936 1 0 ack 40 ------- 1 2.0 0.0 6 22
r 1.53968 1 0 ack 40 ------- 1 2.0 0.0 6 22
+ 1.53968 0 1 tcp 1040 ------- 1 0.0 2.0 8 23
- 1.53968 0 1 tcp 1040 ------- 1 0.0 2.0 8 23
+ 1.53968 0 1 tcp 1040 ------- 1 0.0 2.0 9 24
- 1.548 0 1 tcp 1040 ------- 1 0.0 2.0 9 24
r 1.558 0 1 tcp 1040 ------- 1 0.0 2.0 8 23
+ 1.558 1 2 tcp 1040 ------- 1 0.0 2.0 8 23
r 1.56632 0 1 tcp 1040 ------- 1 0.0 2.0 9 24
+ 1.56632 1 2 tcp 1040 ------- 1 0.0 2.0 9 24
- 1.66936 1 2 tcp 1040 ------- 1 0.0 2.0 4 16
r 1.67936 1 2 tcp 1040 ---A--- 1 0.0 2.0 3 14
+ 1.67936 2 1 ack 40 ------- 1 2.0 0.0 6 25
- 1.67936 2 1 ack 40 ------- 1 2.0 0.0 6 25
r 1.69576 2 1 ack 40 ------- 1 2.0 0.0 6 25
+ 1.69576 1 0 ack 40 ------- 1 2.0 0.0 6 25
- 1.69576 1 0 ack 40 ------- 1 2.0 0.0 6 25
r 1.70608 1 0 ack 40 ------- 1 2.0 0.0 6 25
+ 1.70608 0 1 tcp 1040 ------- 1 0.0 2.0 10 26
- 1.70608 0 1 tcp 1040 ------- 1 0.0 2.0 10 26
r 1.7244 0 1 tcp 1040 ------- 1 0.0 2.0 10 26
+ 1.7244 1 2 tcp 1040 ------- 1 0.0 2.0 10 26
- 1.83576 1 2 tcp 1040 ------- 1 0.0 2.0 5 17
r 1.84576 1 2 tcp 1040 ------- 1 0.0 2.0 4 16
+ 1.84576 2 1 ack 40 ------- 1 2.0 0.0 6 27
- 1.84576 2 1 ack 40 ------- 1 2.0 0.0 6 27
r 1.86216 2 1 ack 40 ------- 1 2.0 0.0 6 27
+ 1.86216 1 0 ack 40 ------- 1 2.0 0.0 6 27
- 1.86216 1 0 ack 40 ------- 1 2.0 0.0 6 27
r 1.87248 1 0 ack 40 ------- 1 2.0 0.0 6 27
+ 1.87248 0 1 tcp 1040 ------- 1 0.0 2.0 11 28
- 1.87248 0 1 tcp 1040 ------- 1 0.0 2.0 11 28
r 1.8908 0 1 tcp 1040 ------- 1 0.0 2.0 11 28
+ 1.8908 1 2 tcp 1040 ------- 1 0.0 2.0 11 28
- 2.00216 1 2 tcp 1040 ------- 1 0.0 2.0 6 19
r 2.01216 1 2 tcp 1040 ------- 1 0.0 2.0 5 17
+ 2.01216 2 1 ack 40 ------- 1 2.0 0.0 6 29
- 2.01216 2 1 ack 40 ------- 1 2.0 0.0 6 29
r 2.02856 2 1 ack 40 ------- 1 2.0 0.0 6 29
+ 2.02856 1 0 ack 40 ------- 1 2.0 0.0 6 29
- 2.02856 1 0 ack 40 ------- 1 2.0 0.0 6 29
r 2.03888 1 0 ack 40 ------- 1 2.0 0.0 6 29
- 2.16856 1 2 tcp 1040 ------- 1 0.0 2.0 7 21
r 2.17856 1 2 tcp 1040 ------- 1 0.0 2.0 6 19
+ 2.17856 2 1 ack 40 ------- 1 2.0 0.0 6 30
- 2.17856 2 1 ack 40 ------- 1 2.0 0.0 6 30
r 2.19496 2 1 ack 40 ------- 1 2.0 0.0 6 30
+ 2.19496 1 0 ack 40 ------- 1 2.0 0.0 6 30
- 2.19496 1 0 ack 40 ------- 1 2.0 0.0 6 30
r 2.20528 1 0 ack 40 ------- 1 2.0 0.0 6 30
- 2.33496 1 2 tcp 1040 ------- 1 0.0 2.0 8 23
+ 2.33968 0 1 tcp 1040 ---A--- 1 0.0 2.0 7 31
- 2.33968 0 1 tcp 1040 ---A--- 1 0.0 2.0 7 31
r 2.34496 1 2 tcp 1040 ------- 1 0.0 2.0 7 21
+ 2.34496 2 1 ack 40 ------- 1 2.0 0.0 7 32
- 2.34496 2 1 ack 40 ------- 1 2.0 0.0 7 32
r 2.358 0 1 tcp 1040 ---A--- 1 0.0 2.0 7 31
+ 2.358 1 2 tcp 1040 ---A--- 1 0.0 2.0 7 31
r 2.36136 2 1 ack 40 ------- 1 2.0 0.0 7 32
+ 2.36136 1 0 ack 40 ------- 1 2.0 0.0 7 32
- 2.36136 1 0 ack 40 ------- 1 2.0 0.0 7 32
r 2.37168 1 0 ack 40 ------- 1 2.0 0.0 7 32
+ 2.37168 0 1 tcp 1040 ------- 1 0.0 2.0 8 33
- 2.37168 0 1 tcp 1040 ------- 1 0.0 2.0 8 33
+ 2.37168 0 1 tcp 1040 ------- 1 0.0 2.0 9 34
- 2.38 0 1 tcp 1040 ------- 1 0.0 2.0 9 34
r 2.39 0 1 tcp 1040 ------- 1 0.0 2.0 8 33
+ 2.39 1 2 tcp 1040 ------- 1 0.0 2.0 8 33
r 2.39832 0 1 tcp 1040 ------- 1 0.0 2.0 9 34
+ 2.39832 1 2 tcp 1040 ------- 1 0.0 2.0 9 34
- 2.50136 1 2 tcp 1040 ------- 1 0.0 2.0 9 24
r 2.51136 1 2 tcp 1040 ------- 1 0.0 2.0 8 23
+ 2.51136 2 1 ack 40 ------- 1 2.0 0.0 8 35
- 2.51136 2 1 ack 40 ------- 1 2.0 0.0 8 35
r 2.52776 2 1 ack 40 ------- 1 2.0 0.0 8 35
+ 2.52776 1 0 ack 40 ------- 1 2.0 0.0 8 35
- 2.52776 1 0 ack 40 ------- 1 2.0 0.0 8 35
r 2.53808 1 0 ack 40 ------- 1 2.0 0.0 8 35
+ 2.53808 0 1 tcp 1040 ------- 1 0.0 2.0 10 36
- 2.53808 0 1 tcp 1040 ------- 1 0.0 2.0 10 36
r 2.5564 0 1 tcp 1040 ------- 1 0.0 2.0 10 36
+ 2.5564 1 2 tcp 1040 ------- 1 0.0 2.0 10 36
- 2.66776 1 2 tcp 1040 ------- 1 0.0 2.0 10 26
r 2.67776 1 2 tcp 1040 ------- 1 0.0 2.0 9 24
+ 2.67776 2 1 ack 40 ------- 1 2.0 0.0 9 37
- 2.67776 2 1 ack 40 ------- 1 2.0 0.0 9 37
r 2.69416 2 1 ack 40 ------- 1 2.0 0.0 9 37
+ 2.69416 1 0 ack 40 ------- 1 2.0 0.0 9 37
- 2.69416 1 0 ack 40 ------- 1 2.0 0.0 9 37
r 2.70448 1 0 ack 40 ------- 1 2.0 0.0 9 37
+ 2.70448 0 1 tcp 1040 ------- 1 0.0 2.0 11 38
- 2.70448 0 1 tcp 1040 ------- 1 0.0 2.0 11 38
r 2.7228 0 1 tcp 1040 ------- 1 0.0 2.0 11 38
+ 2.7228 1 2 tcp 1040 ------- 1 0.0 2.0 11 38
- 2.83416 1 2 tcp 1040 ------- 1 0.0 2.0 11 28
r 2.84416 1 2 tcp 1040 ------- 1 0.0 2.0 10 26
+ 2.84416 2 1 ack 40 ------- 1 2.0 0.0 10 39
- 2.84416 2 1 ack 40 ------- 1 2.0 0.0 10 39
r 2.86056 2 1 ack 40 ------- 1 2.0 0.0 10 39
+ 2.86056 1 0 ack 40 ------- 1 2.0 0.0 10 39
- 2.86056 1 0 ack 40 ------- 1 2.0 0.0 10 39
r 2.87088 1 0 ack 40 ------- 1 2.0 0.0 10 39
+ 2.87088 0 1 tcp 1040 ------- 1 0.0 2.0 12 40
- 2.87088 0 1 tcp 1040 ------- 1 0.0 2.0 12 40
+ 2.87088 0 1 tcp 1040 ------- 1 0.0 2.0 13 41
- 2.8792 0 1 tcp 1040 ------- 1 0.0 2.0 13 41
r 2.8892 0 1 tcp 1040 ------- 1 0.0 2.0 12 40
+ 2.8892 1 2 tcp 1040 ------- 1 0.0 2.0 12 40
r 2.89752 0 1 tcp 1040 ------- 1 0.0 2.0 13 41
+ 2.89752 1 2 tcp 1040 ------- 1 0.0 2.0 13 41
- 3.00056 1 2 tcp 1040 ---A--- 1 0.0 2.0 7 31
r 3.01056 1 2 tcp 1040 ------- 1 0.0 2.0 11 28
+ 3.01056 2 1 ack 40 ------- 1 2.0 0.0 11 42
- 3.01056 2 1 ack 40 ------- 1 2.0 0.0 11 42
r 3.02696 2 1 ack 40 ------- 1 2.0 0.0 11 42
+ 3.02696 1 0 ack 40 ------- 1 2.0 0.0 11 42
- 3.02696 1 0 ack 40 ------- 1 2.0 0.0 11 42
r 3.03728 1 0 ack 40 ------- 1 2.0 0.0 11 42
+ 3.03728 0 1 tcp 1040 ------- 1 0.0 2.0 14 43
- 3.03728 0 1 tcp 1040 ------- 1 0.0 2.0 14 43
r 3.0556 0 1 tcp 1040 ------- 1 0.0 2.0 14 43
+ 3.0556 1 2 tcp 1040 ------- 1 0.0 2.0 14 43
- 3.16696 1 2 tcp 1040 ------- 1 0.0 2.0 8 33
r 3.17696 1 2 tcp 1040 ---A--- 1 0.0 2.0 7 31
+ 3.17696 2 1 ack 40 ------- 1 2.0 0.0 11 44
- 3.17696 2 1 ack 40 ------- 1 2.0 0.0 11 44
r 3.19336 2 1 ack 40 ------- 1 2.0 0.0 11 44
+ 3.19336 1 0 ack 40 ------- 1 2.0 0.0 11 44
- 3.19336 1 0 ack 40 ------- 1 2.0 0.0 11 44
r 3.20368 1 0 ack 40 ------- 1 2.0 0.0 11 44
+ 3.20368 0 1 tcp 1040 ------- 1 0.0 2.0 15 45
- 3.20368 0 1 tcp 1040 ------- 1 0.0 2.0 15 45
r 3.222 0 1 tcp 1040 ------- 1 0.0 2.0 15 45
+ 3.222 1 2 tcp 1040 ------- 1 0.0 2.0 15 45
- 3.33336 1 2 tcp 1040 ------- 1 0.0 2.0 9 34
r 3.34336 1 2 tcp 1040 ------- 1 0.0 2.0 8 33
+ 3.34336 2 1 ack 40 ------- 1 2.0 0.0 11 46
- 3.34336 2 1 ack 40 ------- 1 2.0 0.0 11 46
r 3.35976 2 1 ack 40 ------- 1 2.0 0.0 11 46
+ 3.35976 1 0 ack 40 ------- 1 2.0 0.0 11 46
- 3.35976 1 0 ack 40 ------- 1 2.0 0.0 11 46
r 3.37008 1 0 ack 40 ------- 1 2.0 0.0 11 46
+ 3.37008 0 1 tcp 1040 ------- 1 0.0 2.0 16 47
- 3.37008 0 1 tcp 1040 ------- 1 0.0 2.0 16 47
r 3.3884 0 1 tcp 1040 ------- 1 0.0 2.0 16 47
+ 3.3884 1 2 tcp 1040 ------- 1 0.0 2.0 16 47
- 3.49976 1 2 tcp 1040 ------- 1 0.0 2.0 10 36
r 3.50976 1 2 tcp 1040 ------- 1 0.0 2.0 9 34
+ 3.50976 2 1 ack 40 ------- 1 2.0 0.0 11 48
- 3.50976 2 1 ack 40 ------- 1 2.0 0.0 11 48
r 3.52616 2 1 ack 40 ------- 1 2.0 0.0 11 48
+ 3.52616 1 0 ack 40 ------- 1 2.0 0.0 11 48
- 3.52616 1 0 ack 40 ------- 1 2.0 0.0 11 48
r 3.53648 1 0 ack 40 ------- 1 2.0 0.0 11 48
- 3.66616 1 2 tcp 1040 ------- 1 0.0 2.0 11 38
r 3.67616 1 2 tcp 1040 ------- 1 0.0 2.0 10 36
+ 3.67616 2 1 ack 40 ------- 1 2.0 0.0 11 49
- 3.67616 2 1 ack 40 ------- 1 2.0 0.0 11 49
r 3.69256 2 1 ack 40 ------- 1 2.0 0.0 11 49
+ 3.69256 1 0 ack 40 ------- 1 2.0 0.0 11 49
- 3.69256 1 0 ack 40 ------- 1 2.0 0.0 11 49
r 3.70288 1 0 ack 40 ------- 1 2.0 0.0 11 49
- 3.83256 1 2 tcp 1040 ------- 1 0.0 2.0 12 40
r 3.84256 1 2 tcp 1040 ------- 1 0.0 2.0 11 38
+ 3.84256 2 1 ack 40 ------- 1 2.0 0.0 11 50
- 3.84256 2 1 ack 40 ------- 1 2.0 0.0 11 50
r 3.85896 2 1 ack 40 ------- 1 2.0 0.0 11 50
+ 3.85896 1 0 ack 40 ------- 1 2.0 0.0 11 50
- 3.85896 1 0 ack 40 ------- 1 2.0 0.0 11 50
r 3.86928 1 0 ack 40 ------- 1 2.0 0.0 11 50
- 3.99896 1 2 tcp 1040 ------- 1 0.0 2.0 13 41
r 4.00896 1 2 tcp 1040 ------- 1 0.0 2.0 12 40
+ 4.00896 2 1 ack 40 ------- 1 2.0 0.0 12 51
- 4.00896 2 1 ack 40 ------- 1 2.0 0.0 12 51
r 4.02536 2 1 ack 40 ------- 1 2.0 0.0 12 51
+ 4.02536 1 0 ack 40 ------- 1 2.0 0.0 12 51
- 4.02536 1 0 ack 40 ------- 1 2.0 0.0 12 51
r 4.03568 1 0 ack 40 ------- 1 2.0 0.0 12 51
- 4.16536 1 2 tcp 1040 ------- 1 0.0 2.0 14 43
r 4.17536 1 2 tcp 1040 ------- 1 0.0 2.0 13 41
+ 4.17536 2 1 ack 40 ------- 1 2.0 0.0 13 52
- 4.17536 2 1 ack 40 ------- 1 2.0 0.0 13 52
r 4.19176 2 1 ack 40 ------- 1 2.0 0.0 13 52
+ 4.19176 1 0 ack 40 ------- 1 2.0 0.0 13 52
- 4.19176 1 0 ack 40 ------- 1 2.0 0.0 13 52
r 4.20208 1 0 ack 40 ------- 1 2.0 0.0 13 52
+ 4.20208 0 1 tcp 1040 ------- 1 0.0 2.0 17 53
- 4.20208 0 1 tcp 1040 ------- 1 0.0 2.0 17 53
r 4.2204 0 1 tcp 1040 ------- 1 0.0 2.0 17 53
+ 4.2204 1 2 tcp 1040 ------- 1 0.0 2.0 17 53
- 4.33176 1 2 tcp 1040 ------- 1 0.0 2.0 15 45
r 4.34176 1 2 tcp 1040 ------- 1 0.0 2.0 14 43
+ 4.34176 2 1 ack 40 ------- 1 2.0 0.0 14 54
- 4.34176 2 1 ack 40 ------- 1 2.0 0.0 14 54
r 4.35816 2 1 ack 40 ------- 1 2.0 0.0 14 54
+ 4.35816 1 0 ack 40 ------- 1 2.0 0.0 14 54
- 4.35816 1 0 ack 40 ------- 1 2.0 0.0 14 54
r 4.36848 1 0 ack 40 ------- 1 2.0 0.0 14 54
+ 4.36848 0 1 tcp 1040 ------- 1 0.0 2.0 18 55
- 4.36848 0 1 tcp 1040 ------- 1 0.0 2.0 18 55
r 4.3868 0 1 tcp 1040 ------- 1 0.0 2.0 18 55
+ 4.3868 1 2 tcp 1040 ------- 1 0.0 2.0 18 55
- 4.49816 1 2 tcp 1040 ------- 1 0.0 2.0 16 47
r 4.50816 1 2 tcp 1040 ------- 1 0.0 2.0 15 45
+ 4.50816 2 1 ack 40 ------- 1 2.0 0.0 15 56
- 4.50816 2 1 ack 40 ------- 1 2.0 0.0 15 56
r 4.52456 2 1 ack 40 ------- 1 2.0 0.0 15 56
+ 4.52456 1 0 ack 40 ------- 1 2.0 0.0 15 56
- 4.52456 1 0 ack 40 ------- 1 2.0 0.0 15 56
r 4.53488 1 0 ack 40 ------- 1 2.0 0.0 15 56
+ 4.53488 0 1 tcp 1040 ------- 1 0.0 2.0 19 57
- 4.53488 0 1 tcp 1040 ------- 1 0.0 2.0 19 57
r 4.5532 0 1 tcp 1040 ------- 1 0.0 2.0 19 57
+ 4.5532 1 2 tcp 1040 ------- 1 0.0 2.0 19 57
- 4.66456 1 2 tcp 1040 ------- 1 0.0 2.0 17 53
r 4.67456 1 2 tcp 1040 ------- 1 0.0 2.0 16 47
+ 4.67456 2 1 ack 40 ------- 1 2.0 0.0 16 58
- 4.67456 2 1 ack 40 ------- 1 2.0 0.0 16 58
r 4.69096 2 1 ack 40 ------- 1 2.0 0.0 16 58
+ 4.69096 1 0 ack 40 ------- 1 2.0 0.0 16 58
- 4.69096 1 0 ack 40 ------- 1 2.0 0.0 16 58
r 4.70128 1 0 ack 40 ------- 1 2.0 0.0 16 58
+ 4.70128 0 1 tcp 1040 ------- 1 0.0 2.0 20 59
- 4.70128 0 1 tcp 1040 ------- 1 0.0 2.0 20 59
r 4.7196 0 1 tcp 1040 ------- 1 0.0 2.0 20 59
+ 4.7196 1 2 tcp 1040 ------- 1 0.0 2.0 20 59
- 4.83096 1 2 tcp 1040 ------- 1 0.0 2.0 18 55
r 4.84096 1 2 tcp 1040 ------- 1 0.0 2.0 17 53
+ 4.84096 2 1 ack 40 ------- 1 2.0 0.0 17 60
- 4.84096 2 1 ack 40 ------- 1 2.0 0.0 17 60
r 4.85736 2 1 ack 40 ------- 1 2.0 0.0 17 60
+ 4.85736 1 0 ack 40 ------- 1 2.0 0.0 17 60
- 4.85736 1 0 ack 40 ------- 1 2.0 0.0 17 60
r 4.86768 1 0 ack 40 ------- 1 2.0 0.0 17 60
+ 4.86768 0 1 tcp 1040 ------- 1 0.0 2.0 21 61
- 4.86768 0 1 tcp 1040 ------- 1 0.0 2.0 21 61
r 4.886 0 1 tcp 1040 ------- 1 0.0 2.0 21 61
+ 4.886 1 2 tcp 1040 ------- 1 0.0 2.0 21 61
- 4.99736 1 2 tcp 1040 ------- 1 0.0 2.0 19 57
r 5.00736 1 2 tcp 1040 ------- 1 0.0 2.0 18 55
+ 5.00736 2 1 ack 40 ------- 1 2.0 0.0 18 62
- 5.00736 2 1 ack 40 ------- 1 2.0 0.0 18 62
r 5.02376 2 1 ack 40 ------- 1 2.0 0.0 18 62
+ 5.02376 1 0 ack 40 ------- 1 2.0 0.0 18 62
- 5.02376 1 0 ack 40 ------- 1 2.0 0.0 18 62
r 5.03408 1 0 ack 40 ------- 1 2.0 0.0 18 62
+ 5.03408 0 1 tcp 1040 ------- 1 0.0 2.0 22 63
- 5.03408 0 1 tcp 1040 ------- 1 0.0 2.0 22 63
+ 5.03408 0 1 tcp 1040 ------- 1 0.0 2.0 23 64
- 5.0424 0 1 tcp 1040 ------- 1 0.0 2.0 23 64
r 5.0524 0 1 tcp 1040 ------- 1 0.0 2.0 22 63
+ 5.0524 1 2 tcp 1040 ------- 1 0.0 2.0 22 63
r 5.06072 0 1 tcp 1040 ------- 1 0.0 2.0 23 64
+ 5.06072 1 2 tcp 1040 ------- 1 0.0 2.0 23 64
- 5.16376 1 2 tcp 1040 ------- 1 0.0 2.0 20 59
r 5.17376 1 2 tcp 1040 ------- 1 0.0 2.0 19 57
+ 5.17376 2 1 ack 40 ------- 1 2.0 0.0 19 65
- 5.17376 2 1 ack 40 ------- 1 2.0 0.0 19 65
r 5.19016 2 1 ack 40 ------- 1 2.0 0.0 19 65
+ 5.19016 1 0 ack 40 ------- 1 2.0 0.0 19 65
- 5.19016 1 0 ack 40 ------- 1 2.0 0.0 19 65
r 5.20048 1 0 ack 40 ------- 1 2.0 0.0 19 65
+ 5.20048 0 1 tcp 1040 ------- 1 0.0 2.0 24 66
- 5.20048 0 1 tcp 1040 ------- 1 0.0 2.0 24 66
r 5.2188 0 1 tcp 1040 ------- 1 0.0 2.0 24 66
+ 5.2188 1 2 tcp 1040 ------- 1 0.0 2.0 24 66
- 5.33016 1 2 tcp 1040 ------- 1 0.0 2.0 21 61
r 5.34016 1 2 tcp 1040 ------- 1 0.0 2.0 20 59
+ 5.34016 2 1 ack 40 ------- 1 2.0 0.0 20 67
- 5.34016 2 1 ack 40 ------- 1 2.0 0.0 20 67
r 5.35656 2 1 ack 40 ------- 1 2.0 0.0 20 67
+ 5.35656 1 0 ack 40 ------- 1 2.0 0.0 20 67
- 5.35656 1 0 ack 40 ------- 1 2.0 0.0 20 67
r 5.36688 1 0 ack 40 ------- 1 2.0 0.0 20 67
+ 5.36688 0 1 tcp 1040 ------- 1 0.0 2.0 25 68
- 5.36688 0 1 tcp 1040 ------- 1 0.0 2.0 25 68
r 5.3852 0 1 tcp 1040 ------- 1 0.0 2.0 25 68
+ 5.3852 1 2 tcp 1040 ------- 1 0.0 2.0 25 68
- 5.49656 1 2 tcp 1040 ------- 1 0.0 2.0 22 63
r 5.50656 1 2 tcp 1040 ------- 1 0.0 2.0 21 61
+ 5.50656 2 1 ack 40 ------- 1 2.0 0.0 21 69
- 5.50656 2 1 ack 40 ------- 1 2.0 0.0 21 69
r 5.52296 2 1 ack 40 ------- 1 2.0 0.0 21 69
+ 5.52296 1 0 ack 40 ------- 1 2.0 0.0 21 69
- 5.52296 1 0 ack 40 ------- 1 2.0 0.0 21 69
r 5.53328 1 0 ack 40 ------- 1 2.0 0.0 21 69
+ 5.53328 0 1 tcp 1040 ------- 1 0.0 2.0 26 70
- 5.53328 0 1 tcp 1040 ------- 1 0.0 2.0 26 70
r 5.5516 0 1 tcp 1040 ------- 1 0.0 2.0 26 70
+ 5.5516 1 2 tcp 1040 ------- 1 0.0 2.0 26 70
- 5.66296 1 2 tcp 1040 ------- 1 0.0 2.0 23 64
r 5.67296 1 2 tcp 1040 ------- 1 0.0 2.0 22 63
+ 5.67296 2 1 ack 40 ------- 1 2.0 0.0 22 71
- 5.67296 2 1 ack 40 ------- 1 2.0 0.0 22 71
r 5.68936 2 1 ack 40 ------- 1 2.0 0.0 22 71
+ 5.68936 1 0 ack 40 ------- 1 2.0 0.0 22 71
- 5.68936 1 0 ack 40 ------- 1 2.0 0.0 22 71
r 5.69968 1 0 ack 40 ------- 1 2.0 0.0 22 71
+ 5.69968 0 1 tcp 1040 ------- 1 0.0 2.0 27 72
- 5.69968 0 1 tcp 1040 ------- 1 0.0 2.0 27 72
r 5.718 0 1 tcp 1040 ------- 1 0.0 2.0 27 72
+ 5.718 1 2 tcp 1040 ------- 1 0.0 2.0 27 72
- 5.82936 1 2 tcp 1040 ------- 1 0.0 2.0 24 66
r 5.83936 1 2 tcp 1040 ------- 1 0.0 2.0 23 64
+ 5.83936 2 1 ack 40 ------- 1 2.0 0.0 23 73
- 5.83936 2 1 ack 40 ------- 1 2.0 0.0 23 73
r 5.85576 2 1 ack 40 ------- 1 2.0 0.0 23 73
+ 5.85576 1 0 ack 40 ------- 1 2.0 0.0 23 73
- 5.85576 1 0 ack 40 ------- 1 2.0 0.0 23 73
r 5.86608 1 0 ack 40 ------- 1 2.0 0.0 23 73
+ 5.86608 0 1 tcp 1040 ------- 1 0.0 2.0 28 74
- 5.86608 0 1 tcp 1040 ------- 1 0.0 2.0 28 74
+ 5.86608 0 1 tcp 1040 ------- 1 0.0 2.0 29 75
- 5.8744 0 1 tcp 1040 ------- 1 0.0 2.0 29 75
r 5.8844 0 1 tcp 1040 ------- 1 0.0 2.0 28 74
+ 5.8844 1 2 tcp 1040 ------- 1 0.0 2.0 28 74
r 5.89272 0 1 tcp 1040 ------- 1 0.0 2.0 29 75
+ 5.89272 1 2 tcp 1040 ------- 1 0.0 2.0 29 75
- 5.99576 1 2 tcp 1040 ------- 1 0.0 2.0 25 68
r 6.00576 1 2 tcp 1040 ------- 1 0.0 2.0 24 66
+ 6.00576 2 1 ack 40 ------- 1 2.0 0.0 24 76
- 6.00576 2 1 ack 40 ------- 1 2.0 0.0 24 76
r 6.02216 2 1 ack 40 ------- 1 2.0 0.0 24 76
+ 6.02216 1 0 ack 40 ------- 1 2.0 0.0 24 76
- 6.02216 1 0 ack 40 ------- 1 2.0 0.0 24 76
r 6.03248 1 0 ack 40 ------- 1 2.0 0.0 24 76
+ 6.03248 0 1 tcp 1040 ------- 1 0.0 2.0 30 77
- 6.03248 0 1 tcp 1040 ------- 1 0.0 2.0 30 77
r 6.0508 0 1 tcp 1040 ------- 1 0.0 2.0 30 77
+ 6.0508 1 2 tcp 1040 ------- 1 0.0 2.0 30 77
- 6.16216 1 2 tcp 1040 ------- 1 0.0 2.0 26 70
r 6.17216 1 2 tcp 1040 ------- 1 0.0 2.0 25 68
+ 6.17216 2 1 ack 40 ------- 1 2.0 0.0 25 78
- 6.17216 2 1 ack 40 ------- 1 2.0 0.0 25 78
r 6.18856 2 1 ack 40 ------- 1 2.0 0.0 25 78
+ 6.18856 1 0 ack 40 ------- 1 2.0 0.0 25 78
- 6.18856 1 0 ack 40 ------- 1 2.0 0.0 25 78
r 6.19888 1 0 ack 40 ------- 1 2.0 0.0 25 78
+ 6.19888 0 1 tcp 1040 ------- 1 0.0 2.0 31 79
- 6.19888 0 1 tcp 1040 ------- 1 0.0 2.0 31 79
r 6.2172 0 1 tcp 1040 ------- 1 0.0 2.0 31 79
+ 6.2172 1 2 tcp 1040 ------- 1 0.0 2.0 31 79
- 6.32856 1 2 tcp 1040 ------- 1 0.0 2.0 27 72
r 6.33856 1 2 tcp 1040 ------- 1 0.0 2.0 26 70
+ 6.33856 2 1 ack 40 ------- 1 2.0 0.0 26 80
- 6.33856 2 1 ack 40 ------- 1 2.0 0.0 26 80
r 6.35496 2 1 ack 40 ------- 1 2.0 0.0 26 80
+ 6.35496 1 0 ack 40 ------- 1 2.0 0.0 26 80
- 6.35496 1 0 ack 40 ------- 1 2.0 0.0 26 80
r 6.36528 1 0 ack 40 ------- 1 2.0 0.0 26 80
+ 6.36528 0 1 tcp 1040 ------- 1 0.0 2.0 32 81
- 6.36528 0 1 tcp 1040 ------- 1 0.0 2.0 32 81
r 6.3836 0 1 tcp 1040 ------- 1 0.0 2.0 32 81
+ 6.3836 1 2 tcp 1040 ------- 1 0.0 2.0 32 81
- 6.49496 1 2 tcp 1040 ------- 1 0.0 2.0 28 74
r 6.50496 1 2 tcp 1040 ------- 1 0.0 2.0 27 72
+ 6.50496 2 1 ack 40 ------- 1 2.0 0.0 27 82
- 6.50496 2 1 ack 40 ------- 1 2.0 0.0 27 82
r 6.52136 2 1 ack 40 ------- 1 2.0 0.0 27 82
+ 6.52136 1 0 ack 40 ------- 1 2.0 0.0 27 82
- 6.52136 1 0 ack 40 ------- 1 2.0 0.0 27 82
r 6.53168 1 0 ack 40 ------- 1 2.0 0.0 27 82
+ 6.53168 0 1 tcp 1040 ------- 1 0.0 2.0 33 83
- 6.53168 0 1 tcp 1040 ------- 1 0.0 2.0 33 83
r 6.55 0 1 tcp 1040 ------- 1 0.0 2.0 33 83
+ 6.55 1 2 tcp 1040 ------- 1 0.0 2.0 33 83
- 6.66136 1 2 tcp 1040 ------- 1 0.0 2.0 29 75
r 6.67136 1 2 tcp 1040 ------- 1 0.0 2.0 28 74
+ 6.67136 2 1 ack 40 ------- 1 2.0 0.0 28 84
- 6.67136 2 1 ack 40 ------- 1 2.0 0.0 28 84
r 6.68776 2 1 ack 40 ------- 1 2.0 0.0 28 84
+ 6.68776 1 0 ack 40 ------- 1 2.0 0.0 28 84
- 6.68776 1 0 ack 40 ------- 1 2.0 0.0 28 84
r 6.69808 1 0 ack 40 ------- 1 2.0 0.0 28 84
+ 6.69808 0 1 tcp 1040 ------- 1 0.0 2.0 34 85
- 6.69808 0 1 tcp 1040 ------- 1 0.0 2.0 34 85
r 6.7164 0 1 tcp 1040 ------- 1 0.0 2.0 34 85
+ 6.7164 1 2 tcp 1040 ------- 1 0.0 2.0 34 85
- 6.82776 1 2 tcp 1040 ------- 1 0.0 2.0 30 77
r 6.83776 1 2 tcp 1040 ------- 1 0.0 2.0 29 75
+ 6.83776 2 1 ack 40 ------- 1 2.0 0.0 29 86
- 6.83776 2 1 ack 40 ------- 1 2.0 0.0 29 86
r 6.85416 2 1 ack 40 ------- 1 2.0 0.0 29 86
+ 6.85416 1 0 ack 40 ------- 1 2.0 0.0 29 86
- 6.85416 1 0 ack 40 ------- 1 2.0 0.0 29 86
r 6.86448 1 0 ack 40 ------- 1 2.0 0.0 29 86
+ 6.86448 0 1 tcp 1040 ------- 1 0.0 2.0 35 87
- 6.86448 0 1 tcp 1040 ------- 1 0.0 2.0 35 87
+ 6.86448 0 1 tcp 1040 ------- 1 0.0 2.0 36 88
- 6.8728 0 1 tcp 1040 ------- 1 0.0 2.0 36 88
r 6.8828 0 1 tcp 1040 ------- 1 0.0 2.0 35 87
+ 6.8828 1 2 tcp 1040 ------- 1 0.0 2.0 35 87
r 6.89112 0 1 tcp 1040 ------- 1 0.0 2.0 36 88
+ 6.89112 1 2 tcp 1040 ------- 1 0.0 2.0 36 88
- 6.99416 1 2 tcp 1040 ------- 1 0.0 2.0 31 79
r 7.00416 1 2 tcp 1040 ------- 1 0.0 2.0 30 77
+ 7.00416 2 1 ack 40 ------- 1 2.0 0.0 30 89
- 7.00416 2 1 ack 40 ------- 1 2.0 0.0 30 89
r 7.02056 2 1 ack 40 ------- 1 2.0 0.0 30 89
+ 7.02056 1 0 ack 40 ------- 1 2.0 0.0 30 89
- 7.02056 1 0 ack 40 ------- 1 2.0 0.0 30 89
r 7.03088 1 0 ack 40 ------- 1 2.0 0.0 30 89
+ 7.03088 0 1 tcp 1040 ------- 1 0.0 2.0 37 90
- 7.03088 0 1 tcp 1040 ------- 1 0.0 2.0 37 90
r 7.0492 0 1 tcp 1040 ------- 1 0.0 2.0 37 90
+ 7.0492 1 2 tcp 1040 ------- 1 0.0 2.0 37 90
- 7.16056 1 2 tcp 1040 ------- 1 0.0 2.0 32 81
r 7.17056 1 2 tcp 1040 ------- 1 0.0 2.0 31 79
+ 7.17056 2 1 ack 40 ------- 1 2.0 0.0 31 91
- 7.17056 2 1 ack 40 ------- 1 2.0 0.0 31 91
r 7.18696 2 1 ack 40 ------- 1 2.0 0.0 31 91
+ 7.18696 1 0 ack 40 ------- 1 2.0 0.0 31 91
- 7.18696 1 0 ack 40 ------- 1 2.0 0.0 31 91
r 7.19728 1 0 ack 40 ------- 1 2.0 0.0 31 91
+ 7.19728 0 1 tcp 1040 ------- 1 0.0 2.0 38 92
- 7.19728 0 1 tcp 1040 ------- 1 0.0 2.0 38 92
r 7.2156 0 1 tcp 1040 ------- 1 0.0 2.0 38 92
+ 7.2156 1 2 tcp 1040 ------- 1 0.0 2.0 38 92
- 7.32696 1 2 tcp 1040 ------- 1 0.0 2.0 33 83
r 7.33696 1 2 tcp 1040 ------- 1 0.0 2.0 32 81
+ 7.33696 2 1 ack 40 ------- 1 2.0 0.0 32 93
- 7.33696 2 1 ack 40 ------- 1 2.0 0.0 32 93
r 7.35336 2 1 ack 40 ------- 1 2.0 0.0 32 93
+ 7.35336 1 0 ack 40 ------- 1 2.0 0.0 32 93
- 7.35336 1 0 ack 40 ------- 1 2.0 0.0 32 93
r 7.36368 1 0 ack 40 ------- 1 2.0 0.0 32 93
+ 7.36368 0 1 tcp 1040 ------- 1 0.0 2.0 39 94
- 7.36368 0 1 tcp 1040 ------- 1 0.0 2.0 39 94
r 7.382 0 1 tcp 1040 ------- 1 0.0 2.0 39 94
+ 7.382 1 2 tcp 1040 ------- 1 0.0 2.0 39 94
- 7.49336 1 2 tcp 1040 ------- 1 0.0 2.0 34 85
r 7.50336 1 2 tcp 1040 ------- 1 0.0 2.0 33 83
+ 7.50336 2 1 ack 40 ------- 1 2.0 0.0 33 95
- 7.50336 2 1 ack 40 ------- 1 2.0 0.0 33 95
r 7.51976 2 1 ack 40 ------- 1 2.0 0.0 33 95
+ 7.51976 1 0 ack 40 ------- 1 2.0 0.0 33 95
- 7.51976 1 0 ack 40 ------- 1 2.0 0.0 33 95
r 7.53008 1 0 ack 40 ------- 1 2.0 0.0 33 95
+ 7.53008 0 1 tcp 1040 ------- 1 0.0 2.0 40 96
- 7.53008 0 1 tcp 1040 ------- 1 0.0 2.0 40 96
r 7.5484 0 1 tcp 1040 ------- 1 0.0 2.0 40 96
+ 7.5484 1 2 tcp 1040 ------- 1 0.0 2.0 40 96
- 7.65976 1 2 tcp 1040 ------- 1 0.0 2.0 35 87
r 7.66976 1 2 tcp 1040 ------- 1 0.0 2.0 34 85
+ 7.66976 2 1 ack 40 ------- 1 2.0 0.0 34 97
- 7.66976 2 1 ack 40 ------- 1 2.0 0.0 34 97
r 7.68616 2 1 ack 40 ------- 1 2.0 0.0 34 97
+ 7.68616 1 0 ack 40 ------- 1 2.0 0.0 34 97
- 7.68616 1 0 ack 40 ------- 1 2.0 0.0 34 97
r 7.69648 1 0 ack 40 ------- 1 2.0 0.0 34 97
+ 7.69648 0 1 tcp 1040 ------- 1 0.0 2.0 41 98
- 7.69648 0 1 tcp 1040 ------- 1 0.0 2.0 41 98
r 7.7148 0 1 tcp 1040 ------- 1 0.0 2.0 41 98
+ 7.7148 1 2 tcp 1040 ------- 1 0.0 2.0 41 98
- 7.82616 1 2 tcp 1040 ------- 1 0.0 2.0 36 88
r 7.83616 1 2 tcp 1040 ------- 1 0.0 2.0 35 87
+ 7.83616 2 1 ack 40 ------- 1 2.0 0.0 35 99
- 7.83616 2 1 ack 40 ------- 1 2.0 0.0 35 99
r 7.85256 2 1 ack 40 ------- 1 2.0 0.0 35 99
+ 7.85256 1 0 ack 40 ------- 1 2.0 0.0 35 99
- 7.85256 1 0 ack 40 ------- 1 2.0 0.0 35 99
r 7.86288 1 0 ack 40 ------- 1 2.0 0.0 35 99
+ 7.86288 0 1 tcp 1040 ------- 1 0.0 2.0 42 100
- 7.86288 0 1 tcp 1040 ------- 1 0.0 2.0 42 100
r 7.8812 0 1 tcp 1040 ------- 1 0.0 2.0 42 100
+ 7.8812 1 2 tcp 1040 ------- 1 0.0 2.0 42 100
- 7.99256 1 2 tcp 1040 ------- 1 0.0 2.0 37 90
r 8.00256 1 2 tcp 1040 ------- 1 0.0 2.0 36 88
+ 8.00256 2 1 ack 40 ------- 1 2.0 0.0 36 101
- 8.00256 2 1 ack 40 ------- 1 2.0 0.0 36 101
r 8.01896 2 1 ack 40 ------- 1 2.0 0.0 36 101
+ 8.01896 1 0 ack 40 ------- 1 2.0 0.0 36 101
- 8.01896 1 0 ack 40 ------- 1 2.0 0.0 36 101
r 8.02928 1 0 ack 40 ------- 1 2.0 0.0 36 101
+ 8.02928 0 1 tcp 1040 ------- 1 0.0 2.0 43 102
- 8.02928 0 1 tcp 1040 ------- 1 0.0 2.0 43 102
r 8.0476 0 1 tcp 1040 ------- 1 0.0 2.0 43 102
+ 8.0476 1 2 tcp 1040 ------- 1 0.0 2.0 43 102
- 8.15896 1 2 tcp 1040 ------- 1 0.0 2.0 38 92
r 8.16896 1 2 tcp 1040 ------- 1 0.0 2.0 37 90
+ 8.16896 2 1 ack 40 ------- 1 2.0 0.0 37 103
- 8.16896 2 1 ack 40 ------- 1 2.0 0.0 37 103
r 8.18536 2 1 ack 40 ------- 1 2.0 0.0 37 103
+ 8.18536 1 0 ack 40 ------- 1 2.0 0.0 37 103
- 8.18536 1 0 ack 40 ------- 1 2.0 0.0 37 103
r 8.19568 1 0 ack 40 ------- 1 2.0 0.0 37 103
+ 8.19568 0 1 tcp 1040 ------- 1 0.0 2.0 44 104
- 8.19568 0 1 tcp 1040 ------- 1 0.0 2.0 44 104
+ 8.19568 0 1 tcp 1040 ------- 1 0.0 2.0 45 105
- 8.204 0 1 tcp 1040 ------- 1 0.0 2.0 45 105
r 8.214 0 1 tcp 1040 ------- 1 0.0 2.0 44 104
+ 8.214 1 2 tcp 1040 ------- 1 0.0 2.0 44 104
r 8.22232 0 1 tcp 1040 ------- 1 0.0 2.0 45 105
+ 8.22232 1 2 tcp 1040 ------- 1 0.0 2.0 45 105
- 8.32536 1 2 tcp 1040 ------- 1 0.0 2.0 39 94
r 8.33536 1 2 tcp 1040 ------- 1 0.0 2.0 38 92
+ 8.33536 2 1 ack 40 ------- 1 2.0 0.0 38 106
- 8.33536 2 1 ack 40 ------- 1 2.0 0.0 38 106
r 8.35176 2 1 ack 40 ------- 1 2.0 0.0 38 106
+ 8.35176 1 0 ack 40 ------- 1 2.0 0.0 38 106
- 8.35176 1 0 ack 40 ------- 1 2.0 0.0 38 106
r 8.36208 1 0 ack 40 ------- 1 2.0 0.0 38 106
+ 8.36208 0 1 tcp 1040 ------- 1 0.0 2.0 46 107
- 8.36208 0 1 tcp 1040 ------- 1 0.0 2.0 46 107
r 8.3804 0 1 tcp 1040 ------- 1 0.0 2.0 46 107
+ 8.3804 1 2 tcp 1040 ------- 1 0.0 2.0 46 107
- 8.49176 1 2 tcp 1040 ------- 1 0.0 2.0 40 96
r 8.50176 1 2 tcp 1040 ------- 1 0.0 2.0 39 94
+ 8.50176 2 1 ack 40 ------- 1 2.0 0.0 39 108
- 8.50176 2 1 ack 40 ------- 1 2.0 0.0 39 108
r 8.51816 2 1 ack 40 ------- 1 2.0 0.0 39 108
+ 8.51816 1 0 ack 40 ------- 1 2.0 0.0 39 108
- 8.51816 1 0 ack 40 ------- 1 2.0 0.0 39 108
r 8.52848 1 0 ack 40 ------- 1 2.0 0.0 39 108
+ 8.52848 0 1 tcp 1040 ------- 1 0.0 2.0 47 109
- 8.52848 0 1 tcp 1040 ------- 1 0.0 2.0 47 109
r 8.5468 0 1 tcp 1040 ------- 1 0.0 2.0 47 109
+ 8.5468 1 2 tcp 1040 ------- 1 0.0 2.0 47 109
- 8.65816 1 2 tcp 1040 ------- 1 0.0 2.0 41 98
r 8.66816 1 2 tcp 1040 ------- 1 0.0 2.0 40 96
+ 8.66816 2 1 ack 40 ------- 1 2.0 0.0 40 110
- 8.66816 2 1 ack 40 ------- 1 2.0 0.0 40 110
r 8.68456 2 1 ack 40 ------- 1 2.0 0.0 40 110
+ 8.68456 1 0 ack 40 ------- 1 2.0 0.0 40 110
- 8.68456 1 0 ack 40 ------- 1 2.0 0.0 40 110
r 8.69488 1 0 ack 40 ------- 1 2.0 0.0 40 110
+ 8.69488 0 1 tcp 1040 ------- 1 0.0 2.0 48 111
- 8.69488 0 1 tcp 1040 ------- 1 0.0 2.0 48 111
r 8.7132 0 1 tcp 1040 ------- 1 0.0 2.0 48 111
+ 8.7132 1 2 tcp 1040 ------- 1 0.0 2.0 48 111
- 8.82456 1 2 tcp 1040 ------- 1 0.0 2.0 42 100
r 8.83456 1 2 tcp 1040 ------- 1 0.0 2.0 41 98